<?xml version="1.0"?>
<VTKFile type="UnstructuredGrid" version="0.1" byte_order="BigEndian">
<UnstructuredGrid GhostLevel="0">
<Piece NumberOfPoints="15104" NumberOfCells="1888" ><Points>
<DataArray type="Float64" NumberOfComponents="3" format="ascii">
-565.685	565.685	0	-565.685	565.685	-10	-494.975	636.396	0	-494.975	636.396	-10	-424.264	565.685	0	-424.264	565.685	-10	-494.975	494.975	0	-494.975	494.975	-10	-494.975	636.396	0	-494.975	636.396	-10	-424.264	707.107	0	-424.264	707.107	-10	-353.553	636.396	0	-353.553	636.396	-10	-424.264	565.685	0	-424.264	565.685	-10	-424.264	707.107	0	-424.264	707.107	-10	-353.553	777.817	0	-353.553	777.817	-10	-282.843	707.107	0	-282.843	707.107	-10	-353.553	636.396	0	-353.553	636.396	-10	-353.553	777.817	0	-353.553	777.817	-10	-282.843	848.528	0	-282.843	848.528	-10	-212.132	777.817	0	-212.132	777.817	-10	-282.843	707.107	0	-282.843	707.107	-10	-282.843	848.528	0	-282.843	848.528	-10	-212.132	919.239	0	-212.132	919.239	-10	-141.421	848.528	0	-141.421	848.528	-10	-212.132	777.817	0	-212.132	777.817	-10	-212.132	919.239	0	-212.132	919.239	-10	-141.421	989.949	0	-141.421	989.949	-10	-70.7107	919.239	0	-70.7107	919.239	-10	-141.421	848.528	0	-141.421	848.528	-10	-141.421	989.949	0	-141.421	989.949	-10	-70.7107	1060.66	0	-70.7107	1060.66	-10	1.32628e-05	989.949	0	1.32628e-05	989.949	-10	-70.7107	919.239	0	-70.7107	919.239	-10	-70.7107	1060.66	0	-70.7107	1060.66	-10	1.51575e-05	1131.37	0	1.51575e-05	1131.37	-10	70.7107	1060.66	0	70.7107	1060.66	-10	1.32628e-05	989.949	0	1.32628e-05	989.949	-10	-494.975	494.975	0	-494.975	494.975	-10	-424.264	565.685	0	-424.264	565.685	-10	-353.553	494.975	0	-353.553	494.975	-10	-424.264	424.264	0	-424.264	424.264	-10	-424.264	565.685	0	-424.264	565.685	-10	-353.553	636.396	0	-353.553	636.396	-10	-282.843	565.685	0	-282.843	565.685	-10	-353.553	494.975	0	-353.553	494.975	-10	-353.553	636.396	0	-353.553	636.396	-10	-282.843	707.107	0	-282.843	707.107	-10	-212.132	636.396	0	-212.132	636.396	-10	-282.843	565.685	0	-282.843	565.685	-10	-282.843	707.107	0	-282.843	707.107	-10	-212.132	777.817	0	-212.132	777.817	-10	-141.421	707.107	0	-141.421	707.107	-10	-212.132	636.396	0	-212.132	636.396	-10	-212.132	777.817	0	-212.132	777.817	-10	-141.421	848.528	0	-141.421	848.528	-10	-70.7107	777.817	0	-70.7107	777.817	-10	-141.421	707.107	0	-141.421	707.107	-10	-141.421	848.528	0	-141.421	848.528	-10	-70.7107	919.239	0	-70.7107	919.239	-10	1.13681e-05	848.528	0	1.13681e-05	848.528	-10	-70.7107	777.817	0	-70.7107	777.817	-10	-70.7107	919.239	0	-70.7107	919.239	-10	1.32628e-05	989.949	0	1.32628e-05	989.949	-10	70.7107	919.239	0	70.7107	919.239	-10	1.13681e-05	848.528	0	1.13681e-05	848.528	-10	1.32628e-05	989.949	0	1.32628e-05	989.949	-10	70.7107	1060.66	0	70.7107	1060.66	-10	141.421	989.949	0	141.421	989.949	-10	70.7107	919.239	0	70.7107	919.239	-10	-424.264	424.264	0	-424.264	424.264	-10	-353.553	494.975	0	-353.553	494.975	-10	-282.843	424.264	0	-282.843	424.264	-10	-353.553	353.553	0	-353.553	353.553	-10	-353.553	494.975	0	-353.553	494.975	-10	-282.843	565.685	0	-282.843	565.685	-10	-212.132	494.975	0	-212.132	494.975	-10	-282.843	424.264	0	-282.843	424.264	-10	-282.843	565.685	0	-282.843	565.685	-10	-212.132	636.396	0	-212.132	636.396	-10	-141.421	565.685	0	-141.421	565.685	-10	-212.132	494.975	0	-212.132	494.975	-10	-212.132	636.396	0	-212.132	636.396	-10	-141.421	707.107	0	-141.421	707.107	-10	-70.7107	636.396	0	-70.7107	636.396	-10	-141.421	565.685	0	-141.421	565.685	-10	-141.421	707.107	0	-141.421	707.107	-10	-106.066	742.462	0	-106.066	742.462	-10	-70.7107	707.107	0	-70.7107	707.107	-10	-106.066	671.751	0	-106.066	671.751	-10	-106.066	742.462	0	-106.066	742.462	-10	-70.7107	777.817	0	-70.7107	777.817	-10	-35.3553	742.462	0	-35.3553	742.462	-10	-70.7107	707.107	0	-70.7107	707.107	-10	-70.7107	707.107	0	-70.7107	707.107	-10	-35.3553	742.462	0	-35.3553	742.462	-10	9.47343e-06	707.107	0	9.47343e-06	707.107	-10	-35.3553	671.751	0	-35.3553	671.751	-10	-106.066	671.751	0	-106.066	671.751	-10	-70.7107	707.107	0	-70.7107	707.107	-10	-35.3553	671.751	0	-35.3553	671.751	-10	-70.7107	636.396	0	-70.7107	636.396	-10	-70.7107	777.817	0	-70.7107	777.817	-10	1.13681e-05	848.528	0	1.13681e-05	848.528	-10	70.7107	777.817	0	70.7107	777.817	-10	9.47343e-06	707.107	0	9.47343e-06	707.107	-10	1.13681e-05	848.528	0	1.13681e-05	848.528	-10	70.7107	919.239	0	70.7107	919.239	-10	141.421	848.528	0	141.421	848.528	-10	70.7107	777.817	0	70.7107	777.817	-10	70.7107	919.239	0	70.7107	919.239	-10	141.421	989.949	0	141.421	989.949	-10	212.132	919.239	0	212.132	919.239	-10	141.421	848.528	0	141.421	848.528	-10	-353.553	353.553	0	-353.553	353.553	-10	-282.843	424.264	0	-282.843	424.264	-10	-212.132	353.553	0	-212.132	353.553	-10	-282.843	282.843	0	-282.843	282.843	-10	-282.843	424.264	0	-282.843	424.264	-10	-212.132	494.975	0	-212.132	494.975	-10	-141.421	424.264	0	-141.421	424.264	-10	-212.132	353.553	0	-212.132	353.553	-10	-212.132	494.975	0	-212.132	494.975	-10	-141.421	565.685	0	-141.421	565.685	-10	-70.7107	494.975	0	-70.7107	494.975	-10	-141.421	424.264	0	-141.421	424.264	-10	-141.421	565.685	0	-141.421	565.685	-10	-106.066	601.041	0	-106.066	601.041	-10	-70.7107	565.685	0	-70.7107	565.685	-10	-106.066	530.33	0	-106.066	530.33	-10	-106.066	601.041	0	-106.066	601.041	-10	-70.7107	636.396	0	-70.7107	636.396	-10	-35.3553	601.041	0	-35.3553	601.041	-10	-70.7107	565.685	0	-70.7107	565.685	-10	-70.7107	565.685	0	-70.7107	565.685	-10	-53.033	583.363	0	-53.033	583.363	-10	-35.3553	565.685	0	-35.3553	565.685	-10	-53.033	548.008	0	-53.033	548.008	-10	-53.033	583.363	0	-53.033	583.363	-10	-35.3553	601.041	0	-35.3553	601.041	-10	-17.6777	583.363	0	-17.6777	583.363	-10	-35.3553	565.685	0	-35.3553	565.685	-10	-35.3553	565.685	0	-35.3553	565.685	-10	-17.6777	583.363	0	-17.6777	583.363	-10	7.57874e-06	565.685	0	7.57874e-06	565.685	-10	-17.6777	548.008	0	-17.6777	548.008	-10	-53.033	548.008	0	-53.033	548.008	-10	-35.3553	565.685	0	-35.3553	565.685	-10	-17.6777	548.008	0	-17.6777	548.008	-10	-35.3553	530.33	0	-35.3553	530.33	-10	-106.066	530.33	0	-106.066	530.33	-10	-70.7107	565.685	0	-70.7107	565.685	-10	-35.3553	530.33	0	-35.3553	530.33	-10	-70.7107	494.975	0	-70.7107	494.975	-10	-70.7107	636.396	0	-70.7107	636.396	-10	-53.033	654.074	0	-53.033	654.074	-10	-35.3553	636.396	0	-35.3553	636.396	-10	-53.033	618.718	0	-53.033	618.718	-10	-53.033	654.074	0	-53.033	654.074	-10	-35.3553	671.751	0	-35.3553	671.751	-10	-17.6777	654.074	0	-17.6777	654.074	-10	-35.3553	636.396	0	-35.3553	636.396	-10	-35.3553	636.396	0	-35.3553	636.396	-10	-17.6777	654.074	0	-17.6777	654.074	-10	8.52608e-06	636.396	0	8.52608e-06	636.396	-10	-17.6777	618.718	0	-17.6777	618.718	-10	-53.033	618.718	0	-53.033	618.718	-10	-35.3553	636.396	0	-35.3553	636.396	-10	-17.6777	618.718	0	-17.6777	618.718	-10	-35.3553	601.041	0	-35.3553	601.041	-10	-35.3553	671.751	0	-35.3553	671.751	-10	-17.6777	689.429	0	-17.6777	689.429	-10	8.99976e-06	671.751	0	8.99976e-06	671.751	-10	-17.6777	654.074	0	-17.6777	654.074	-10	-17.6777	689.429	0	-17.6777	689.429	-10	9.47343e-06	707.107	0	9.47343e-06	707.107	-10	17.6777	689.429	0	17.6777	689.429	-10	8.99976e-06	671.751	0	8.99976e-06	671.751	-10	8.99976e-06	671.751	0	8.99976e-06	671.751	-10	17.6777	689.429	0	17.6777	689.429	-10	35.3553	671.751	0	35.3553	671.751	-10	17.6777	654.074	0	17.6777	654.074	-10	-17.6777	654.074	0	-17.6777	654.074	-10	-8.83883	662.913	0	-8.83883	662.913	-10	8.76292e-06	654.074	0	8.76292e-06	654.074	-10	-8.83883	645.235	0	-8.83883	645.235	-10	-8.83883	662.913	0	-8.83883	662.913	-10	8.99976e-06	671.751	0	8.99976e-06	671.751	-10	8.83884	662.913	0	8.83884	662.913	-10	8.76292e-06	654.074	0	8.76292e-06	654.074	-10	8.76292e-06	654.074	0	8.76292e-06	654.074	-10	8.83884	662.913	0	8.83884	662.913	-10	17.6777	654.074	0	17.6777	654.074	-10	8.83884	645.235	0	8.83884	645.235	-10	-8.83883	645.235	0	-8.83883	645.235	-10	8.76292e-06	654.074	0	8.76292e-06	654.074	-10	8.83884	645.235	0	8.83884	645.235	-10	8.52608e-06	636.396	0	8.52608e-06	636.396	-10	8.52608e-06	636.396	0	8.52608e-06	636.396	-10	8.83884	645.235	0	8.83884	645.235	-10	17.6777	636.396	0	17.6777	636.396	-10	8.83884	627.557	0	8.83884	627.557	-10	8.83884	645.235	0	8.83884	645.235	-10	17.6777	654.074	0	17.6777	654.074	-10	26.5165	645.235	0	26.5165	645.235	-10	17.6777	636.396	0	17.6777	636.396	-10	17.6777	636.396	0	17.6777	636.396	-10	26.5165	645.235	0	26.5165	645.235	-10	35.3553	636.396	0	35.3553	636.396	-10	26.5165	627.557	0	26.5165	627.557	-10	8.83884	627.557	0	8.83884	627.557	-10	17.6777	636.396	0	17.6777	636.396	-10	26.5165	627.557	0	26.5165	627.557	-10	17.6777	618.718	0	17.6777	618.718	-10	17.6777	654.074	0	17.6777	654.074	-10	26.5165	662.913	0	26.5165	662.913	-10	35.3553	654.074	0	35.3553	654.074	-10	26.5165	645.235	0	26.5165	645.235	-10	26.5165	662.913	0	26.5165	662.913	-10	35.3553	671.751	0	35.3553	671.751	-10	44.1942	662.913	0	44.1942	662.913	-10	35.3553	654.074	0	35.3553	654.074	-10	35.3553	654.074	0	35.3553	654.074	-10	44.1942	662.913	0	44.1942	662.913	-10	53.033	654.074	0	53.033	654.074	-10	44.1942	645.235	0	44.1942	645.235	-10	26.5165	645.235	0	26.5165	645.235	-10	35.3553	654.074	0	35.3553	654.074	-10	44.1942	645.235	0	44.1942	645.235	-10	35.3553	636.396	0	35.3553	636.396	-10	35.3553	636.396	0	35.3553	636.396	-10	44.1942	645.235	0	44.1942	645.235	-10	53.033	636.396	0	53.033	636.396	-10	44.1942	627.557	0	44.1942	627.557	-10	44.1942	645.235	0	44.1942	645.235	-10	53.033	654.074	0	53.033	654.074	-10	61.8719	645.235	0	61.8719	645.235	-10	53.033	636.396	0	53.033	636.396	-10	53.033	636.396	0	53.033	636.396	-10	61.8719	645.235	0	61.8719	645.235	-10	70.7107	636.396	0	70.7107	636.396	-10	61.8719	627.557	0	61.8719	627.557	-10	44.1942	627.557	0	44.1942	627.557	-10	53.033	636.396	0	53.033	636.396	-10	61.8719	627.557	0	61.8719	627.557	-10	53.033	618.718	0	53.033	618.718	-10	17.6777	618.718	0	17.6777	618.718	-10	26.5165	627.557	0	26.5165	627.557	-10	35.3553	618.718	0	35.3553	618.718	-10	26.5165	609.88	0	26.5165	609.88	-10	26.5165	627.557	0	26.5165	627
[...]
<CellData Scalars="scalars">
<DataArray type="Int32" Name="nodeid" format="ascii">1	2	3	4	5	6	7	8	9	10	11	12	13	14	15	16	17	18	19	20	257	258	260	259	22	23	24	25	26	27	261	262	265	266	268	267	263	273	274	276	275	277	278	280	281	282	284	283	305	306	308	307	309	310	312	311	317	318	320	319	313	314	316	315	285	289	290	292	291	297	298	300	299	293	294	296	295	321	322	324	325	326	328	329	330	332	331	31	32	33	34	35	333	337	341	342	344	343	340	339	336	335	353	354	356	355	357	358	360	359	365	366	368	367	361	362	364	363	373	374	376	375	377	378	380	379	385	386	388	387	381	382	384	383	401	402	404	403	405	406	408	407	413	414	416	415	409	410	412	411	389	393	394	396	395	392	391	425	426	428	427	429	430	432	431	437	438	440	439	433	434	436	435	441	442	444	445	446	448	447	473	474	476	475	477	478	480	479	485	486	488	487	481	482	484	483	453	454	456	455	457	458	460	459	465	466	468	467	461	462	464	463	489	490	492	493	494	496	497	498	500	499	40	41	42	43	44	501	505	509	510	512	511	508	507	504	503	521	522	524	523	525	526	528	527	533	534	536	535	529	530	532	531	541	542	544	543	545	546	548	547	553	554	556	555	549	550	552	551	569	570	572	571	573	574	576	575	581	582	584	583	577	578	580	579	557	561	562	564	563	560	559	593	594	596	595	597	598	600	599	605	606	608	607	601	602	604	603	609	610	612	613	614	616	615	641	642	644	643	645	646	648	647	653	654	656	655	649	650	652	651	621	622	624	623	625	626	628	627	633	634	636	635	629	630	632	631	657	658	660	661	662	664	665	666	668	667	49	50	51	52	53	669	673	677	678	680	679	676	675	672	671	689	690	692	691	693	694	696	695	701	702	704	703	697	698	700	699	709	710	712	711	713	714	716	715	721	722	724	723	717	718	720	719	737	738	740	739	741	742	744	743	749	750	752	751	745	746	748	747	725	729	730	732	731	728	727	761	762	764	763	765	766	768	767	773	774	776	775	769	770	772	771	777	778	780	779	756	785	786	788	787	782	784	783	57	58	59	60	61	62	789	793	794	796	795	792	791	797	798	800	799	65	66	67	68	69	70	71	72	73	74	75	76	77	78	79	80	81	82	83	84	801	802	804	803	86	87	88	89	90	91	805	806	809	810	812	811	807	817	818	820	819	821	822	824	825	826	828	827	849	850	852	851	853	854	856	855	861	862	864	863	857	858	860	859	829	833	834	836	835	841	842	844	843	837	838	840	839	865	866	868	869	870	872	873	874	876	875	95	96	97	98	99	877	881	885	886	888	887	884	883	880	879	897	898	900	899	901	902	904	903	909	910	912	911	905	906	908	907	917	918	920	919	921	922	924	923	929	930	932	931	925	926	928	927	945	946	948	947	949	950	952	951	957	958	960	959	953	954	956	955	933	937	938	940	939	936	935	969	970	972	971	973	974	976	975	981	982	984	983	977	978	980	979	985	986	988	989	990	992	991	1017	1018	1020	1019	1021	1022	1024	1023	1029	1030	1032	1031	1025	1026	1028	1027	997	998	1000	999	1001	1002	1004	1003	1009	1010	1012	1011	1005	1006	1008	1007	1033	1034	1036	1037	1038	1040	1041	1042	1044	1043	104	105	106	107	108	1045	1049	1053	1054	1056	1055	1052	1051	1048	1047	1065	1066	1068	1067	1069	1070	1072	1071	1077	1078	1080	1079	1073	1074	1076	1075	1085	1086	1088	1087	1089	1090	1092	1091	1097	1098	1100	1099	1093	1094	1096	1095	1113	1114	1116	1115	1117	1118	1120	1119	1125	1126	1128	1127	1121	1122	1124	1123	1101	1105	1106	1108	1107	1104	1103	1137	1138	1140	1139	1141	1142	1144	1143	1149	1150	1152	1151	1145	1146	1148	1147	1153	1154	1156	1157	1158	1160	1159	1185	1186	1188	1187	1189	1190	1192	1191	1197	1198	1200	1199	1193	1194	1196	1195	1165	1166	1168	1167	1169	1170	1172	1171	1177	1178	1180	1179	1173	1174	1176	1175	1201	1202	1204	1205	1206	1208	1209	1210	1212	1211	113	114	115	116	117	1213	1217	1221	1222	1224	1223	1220	1219	1216	1215	1233	1234	1236	1235	1237	1238	1240	1239	1245	1246	1248	1247	1241	1242	1244	1243	1253	1254	1256	1255	1257	1258	1260	1259	1265	1266	1268	1267	1261	1262	1264	1263	1281	1282	1284	1283	1285	1286	1288	1287	1293	1294	1296	1295	1289	1290	1292	1291	1269	1273	1274	1276	1275	1272	1271	1305	1306	1308	1307	1309	1310	1312	1311	1317	1318	1320	1319	1313	1314	1316	1315	1321	1322	1324	1323	1300	1329	1330	1332	1331	1326	1328	1327	121	122	123	124	125	126	1333	1337	1338	1340	1339	1336	1335	1341	1342	1344	1343	129	130	131	132	133	134	135	136	137	138	139	140	141	142	143	144	145	146	147	148	1345	1346	1348	1347	150	151	152	153	154	155	1349	1350	1353	1354	1356	1355	1351	1361	1362	1364	1363	1365	1366	1368	1369	1370	1372	1371	1393	1394	1396	1395	1397	1398	1400	1399	1405	1406	1408	1407	1401	1402	1404	1403	1373	1377	1378	1380	1379	1385	1386	1388	1387	1381	1382	1384	1383	1409	1410	1412	1413	1414	1416	1417	1418	1420	1419	159	160	161	162	163	1421	1425	1429	1430	1432	1431	1428	1427	1424	1423	1441	1442	1444	1443	1445	1446	1448	1447	1453	1454	1456	1455	1449	1450	1452	1451	1461	1462	1464	1463	1465	1466	1468	1467	1473	1474	1476	1475	1469	1470	1472	1471	1489	1490	1492	1491	1493	1494	1496	1495	1501	1502	1504	1503	1497	1498	1500	1499	1477	1481	1482	1484	1483	1480	1479	1513	1514	1516	1515	1517	1518	1520	1519	1525	1526	1528	1527	1521	1522	1524	1523	1529	1530	1532	1533	1534	1536	1535	1561	1562	1564	1563	1565	1566	1568	1567	1573	1574	1576	1575	1569	1570	1572	1571	1541	1542	1544	1543	1545	1546	1548	1547	1553	1554	1556	1555	1549	1550	1552	1551	1577	1578	1580	1581	1582	1584	1585	1586	1588	1587	168	169	170	171	172	1589	1593	1597	1598	1600	1599	1596	1595	1592	1591	1609	1610	1612	1611	1613	1614	1616	1615	1621	1622	1624	1623	1617	1618	1620	1619	1629	1630	1632	1631	1633	1634	1636	1635	1641	1642	1644	1643	1637	1638	1640	1639	1657	1658	1660	1659	1661	1662	1664	1663	1669	1670	1672	1671	1665	1666	1668	1667	1645	1649	1650	1652	1651	1648	1647	1681	1682	1684	1683	1685	1686	1688	1687	1693	1694	1696	1695	1689	1690	1692	1691	1697	1698	1700	1701	1702	1704	1703	1729	1730	1732	1731	1733	1734	1736	1735	1741	1742	1744	1743	1737	1738	1740	1739	1709	1710	1712	1711	1713	1714	1716	1715	1721	1722	1724	1723	1717	1718	1720	1719	1745	1746	1748	1749	1750	1752	1753	1754	1756	1755	177	178	179	180	181	1757	1761	1765	1766	1768	1767	1764	1763	1760	1759	1777	1778	1780	1779	1781	1782	1784	1783	1789	1790	1792	1791	1785	1786	1788	1787	1797	1798	1800	1799	1801	1802	1804	1803	1809	1810	1812	1811	1805	1806	1808	1807	1825	1826	1828	1827	1829	1830	1832	1831	1837	1838	1840	1839	1833	1834	1836	1835	1813	1817	1818	1820	1819	1816	1815	1849	1850	1852	1851	1853	1854	1856	1855	1861	1862	1864	1863	1857	1858	1860	1859	1865	1866	1868	1867	1844	1873	1874	1876	1875	1870	1872	1871	185	186	187	188	189	190	1877	1881	1882	1884	1883	1880	1879	1885	1886	1888	1887	193	194	195	196	197	198	199	200	201	202	203	204	205	206	207	208	209	210	211	212	1889	1890	1892	1891	214	215	216	217	218	219	1893	1894	1897	1898	1900	1899	1895	1905	1906	1908	1907	1909	1910	1912	1913	1914	1916	1915	1937	1938	1940	1939	1941	1942	1944	1943	1949	1950	1952	1951	1945	1946	1948	1947	1917	1921	1922	1924	1923	1929	1930	1932	1931	1925	1926	1928	1927	1953	1954	1956	1957	1958	1960	1961	1962	1964	1963	223	224	225	226	227	1965	1969	1973	1974	1976	1975	1972	1971	1968	1967	1985	1986	1988	1987	1989	1990	1992	1991	1997	1998	2000	1999	1993	1994	1996	1995	2005	2006	2008	2007	2009	2010	2012	2011	2017	2018	2020	2019	2013	2014	2016	2015	2033	2034	2036	2035	2037	2038	2040	2039	2045	2046	2048	2047	2041	2042	2044	2043	2021	2025	2026	2028	2027	2024	2023	2057	2058	2060	2059	2061	2062	2064	2063	2069	2070	2072	2071	2065	2066	2068	2067	2073	2074	2076	2077	2078	2080	2079	2105	2106	2108	2107	2109	2110	2112	2111	2117	2118	2120	2119	2113	2114	2116	2115	2085	2086	2088	2087	2089	2090	2092	2091	2097	2098	2100	2099	2093	2094	2096	2095	2121	2122	2124	2125	2126	2128	2129	2130	2132	2131	232	233	234	235	236	2133	2137	2141	2142	2144	2143	2140	2139	2136	2135	2153	2154	2156	2155	2157	2158	2160	2159	2165	2166	2168	2167	2161	2162	2164	2163	2173	2174	2176	2175	2177	2178	2180	2179	2185	2186	2188	2187	2181	2182	2184	2183	2201	2202	2204	2203	2205	2206	2208	2207	2213	2214	2216	2215	2209	2210	2212	2211	2189	2193	2194	2196	2195	2192	2191	2225	2226	2228	2227	2229	2230	2232	2231	2237	2238	2240	2239	2233	2234	2236	2235	2241	2242	2244	2245	2246	2248	2247	2273	2274	2276	2275	2277	2278	2280	2279	2285	2286	2288	2287	2281	2282	2284	2283	2253	2254	2256	2255	2257	2258	2260	2259	2265	2266	2268	2267	2261	2262	2264	2263	2289	2290	2292	2293	2294	2296	2297	2298	2300	2299	241	242	243	244	245	2301	2305	2309	2310	2312	2311	2308	2307	2304	2303	2321	2322	2324	2323	2325	2326	2328	2327	2333	2334	2336	2335	2329	2330	2332	2331	2341	2342	2344	2343	2345	2346	2348	2347	2353	2354	2356	2355	2349	2350	2352	2351	2369	2370	2372	2371	2373	2374	2376	2375	2381	2382	2384	2383	2377	2378	2380	2379	2357	2361	2362	2364	2363	2360	2359	2393	2394	2396	2395	2397	2398	2400	2399	2405	2406	2408	2407	2401	2402	2404	2403	2409	2410	2412	2411	2388	2417	2418	2420	2419	2414	2416	2415	249	250	251	252	253	254	2421	2425	2426	2428	2427	2424	2423	2429	2430	2432	2431	</DataArray>
<DataArray type="Int32" Name="nodenumber" format="ascii">1	2	3	4	5	6	7	8	9	10	11	12	13	14	15	16	17	18	19	20	21	22	24	23	25	26	27	28	29	30	31	32	34	35	37	36	33	38	39	41	40	42	43	48	44	45	47	46	62	63	65	64	66	67	69	68	74	75	77	76	70	71	73	72	49	50	51	53	52	58	59	61	60	54	55	57	56	78	79	87	80	81	86	82	83	85	84	88	89	90	91	92	93	94	95	96	98	97	100	99	102	101	103	104	106	105	107	108	110	109	115	116	118	117	111	112	114	113	119	120	122	121	123	124	126	125	131	132	134	133	127	128	130	129	142	143	145	144	146	147	149	148	154	155	157	156	150	151	153	152	135	136	137	139	138	141	140	158	159	161	160	162	163	165	164	170	171	173	172	166	167	169	168	174	175	180	176	177	179	178	197	198	200	199	201	202	204	203	209	210	212	211	205	206	208	207	181	182	184	183	185	186	188	187	193	194	196	195	189	190	192	191	213	214	222	215	216	221	217	218	220	219	223	224	225	226	227	228	229	230	231	233	232	235	234	237	236	238	239	241	240	242	243	245	244	250	251	253	252	246	247	249	248	254	255	257	256	258	259	261	260	266	267	269	268	262	263	265	264	277	278	280	279	281	282	284	283	289	290	292	291	285	286	288	287	270	271	272	274	273	276	275	293	294	296	295	297	298	300	299	305	306	308	307	301	302	304	303	309	310	315	311	312	314	313	332	333	335	334	336	337	339	338	344	345	347	346	340	341	343	342	316	317	319	318	320	321	323	322	328	329	331	330	324	325	327	326	348	349	357	350	351	356	352	353	355	354	358	359	360	361	362	363	364	365	366	368	367	370	369	372	371	373	374	376	375	377	378	380	379	385	386	388	387	381	382	384	383	389	390	392	391	393	394	396	395	401	402	404	403	397	398	400	399	412	413	415	414	416	417	419	418	424	425	427	426	420	421	423	422	405	406	407	409	408	411	410	428	429	431	430	432	433	435	434	440	441	443	442	436	437	439	438	444	445	447	446	455	448	449	451	450	452	454	453	456	457	458	459	460	461	462	463	464	466	465	468	467	469	470	472	471	473	474	475	476	477	478	479	480	481	482	483	484	485	486	487	488	489	490	491	492	493	494	496	495	497	498	499	500	501	502	503	504	506	507	509	508	505	510	511	513	512	514	515	520	516	517	519	518	534	535	537	536	538	539	541	540	546	547	549	548	542	543	545	544	521	522	523	525	524	530	531	533	532	526	527	529	528	550	551	559	552	553	558	554	555	557	556	560	561	562	563	564	565	566	567	568	570	569	572	571	574	573	575	576	578	577	579	580	582	581	587	588	590	589	583	584	586	585	591	592	594	593	595	596	598	597	603	604	606	605	599	600	602	601	614	615	617	616	618	619	621	620	626	627	629	628	622	623	625	624	607	608	609	611	610	613	612	630	631	633	632	634	635	637	636	642	643	645	644	638	639	641	640	646	647	652	648	649	651	650	669	670	672	671	673	674	676	675	681	682	684	683	677	678	680	679	653	654	656	655	657	658	660	659	665	666	668	667	661	662	664	663	685	686	694	687	688	693	689	690	692	691	695	696	697	698	699	700	701	702	703	705	704	707	706	709	708	710	711	713	712	714	715	717	716	722	723	725	724	718	719	721	720	726	727	729	728	730	731	733	732	738	739	741	740	734	735	737	736	749	750	752	751	753	754	756	755	761	762	764	763	757	758	760	759	742	743	744	746	745	748	747	765	766	768	767	769	770	772	771	777	778	780	779	773	774	776	775	781	782	787	783	784	786	785	804	805	807	806	808	809	811	810	816	817	819	818	812	813	815	814	788	789	791	790	792	793	795	794	800	801	803	802	796	797	799	798	820	821	829	822	823	828	824	825	827	826	830	831	832	833	834	835	836	837	838	840	839	842	841	844	843	845	846	848	847	849	850	852	851	857	858	860	859	853	854	856	855	861	862	864	863	865	866	868	867	873	874	876	875	869	870	872	871	884	885	887	886	888	889	891	890	896	897	899	898	892	893	895	894	877	878	879	881	880	883	882	900	901	903	902	904	905	907	906	912	913	915	914	908	909	911	910	916	917	919	918	927	920	921	923	922	924	926	925	928	929	930	931	932	933	934	935	936	938	937	940	939	941	942	944	943	945	946	947	948	949	950	951	952	953	954	955	956	957	958	959	960	961	962	963	964	965	966	968	967	969	970	971	972	973	974	975	976	978	979	981	980	977	982	983	985	984	986	987	992	988	989	991	990	1006	1007	1009	1008	1010	1011	1013	1012	1018	1019	1021	1020	1014	1015	1017	1016	993	994	995	997	996	1002	1003	1005	1004	998	999	1001	1000	1022	1023	1031	1024	1025	1030	1026	1027	1029	1028	1032	1033	1034	1035	1036	1037	1038	1039	1040	1042	1041	1044	1043	1046	1045	1047	1048	1050	1049	1051	1052	1054	1053	1059	1060	1062	1061	1055	1056	1058	1057	1063	1064	1066	1065	1067	1068	1070	1069	1075	1076	1078	1077	1071	1072	1074	1073	1086	1087	1089	1088	1090	1091	1093	1092	1098	1099	1101	1100	1094	1095	1097	1096	1079	1080	1081	1083	1082	1085	1084	1102	1103	1105	1104	1106	1107	1109	1108	1114	1115	1117	1116	1110	1111	1113	1112	1118	1119	1124	1120	1121	1123	1122	1141	1142	1144	1143	1145	1146	1148	1147	1153	1154	1156	1155	1149	1150	1152	1151	1125	1126	1128	1127	1129	1130	1132	1131	1137	1138	1140	1139	1133	1134	1136	1135	1157	1158	1166	1159	1160	1165	1161	1162	1164	1163	1167	1168	1169	1170	1171	1172	1173	1174	1175	1177	1176	1179	1178	1181	1180	1182	1183	1185	1184	1186	1187	1189	1188	1194	1195	1197	1196	1190	1191	1193	1192	1198	1199	1201	1200	1202	1203	1205	1204	1210	1211	1213	1212	1206	1207	1209	1208	1221	1222	1224	1223	1225	1226	1228	1227	1233	1234	1236	1235	1229	1230	1232	1231	1214	1215	1216	1218	1217	1220	1219	1237	1238	1240	1239	1241	1242	1244	1243	1249	1250	1252	1251	1245	1246	1248	1247	1253	1254	1259	1255	1256	1258	1257	1276	1277	1279	1278	1280	1281	1283	1282	1288	1289	1291	1290	1284	1285	1287	1286	1260	1261	1263	1262	1264	1265	1267	1266	1272	1273	1275	1274	1268	1269	1271	1270	1292	1293	1301	1294	1295	1300	1296	1297	1299	1298	1302	1303	1304	1305	1306	1307	1308	1309	1310	1312	1311	1314	1313	1316	1315	1317	1318	1320	1319	1321	1322	1324	1323	1329	1330	1332	1331	1325	1326	1328	1327	1333	1334	1336	1335	1337	1338	1340	1339	1345	1346	1348	1347	1341	1342	1344	1343	1356	1357	1359	1358	1360	1361	1363	1362	1368	1369	1371	1370	1364	1365	1367	1366	1349	1350	1351	1353	1352	1355	1354	1372	1373	1375	1374	1376	1377	1379	1378	1384	1385	1387	1386	1380	1381	1383	1382	1388	1389	1391	1390	1399	1392	1393	1395	1394	1396	1398	1397	1400	1401	1402	1403	1404	1405	1406	1407	1408	1410	1409	1412	1411	1413	1414	1416	1415	1417	1418	1419	1420	1421	1422	1423	1424	1425	1426	1427	1428	1429	1430	1431	1432	1433	1434	1435	1436	1437	1438	1440	1439	1441	1442	1443	1444	1445	1446	1447	1448	1450	1451	1453	1452	1449	1454	1455	1457	1456	1458	1459	1464	1460	1461	1463	1462	1478	1479	1481	1480	1482	1483	1485	1484	1490	1491	1493	1492	1486	1487	1489	1488	1465	1466	1467	1469	1468	1474	1475	1477	1476	1470	1471	1473	1472	1494	1495	1503	1496	1497	1502	1498	1499	1501	1500	1504	1505	1506	1507	1508	1509	1510	1511	1512	1514	1513	1516	1515	1518	1517	1519	1520	1522	1521	1523	1524	1526	1525	1531	1532	1534	1533	1527	1528	1530	1529	1535	1536	1538	1537	1539	1540	1542	1541	1547	1548	1550	1549	1543	1544	1546	1545	1558	1559	1561	1560	1562	1563	1565	1564	1570	1571	1573	1572	1566	1567	1569	1568	1551	1552	1553	1555	1554	1557	1556	1574	1575	1577	1576	1578	1579	1581	1580	1586	1587	1589	1588	1582	1583	1585	1584	1590	1591	1596	1592	1593	1595	1594	1613	1614	1616	1615	1617	1618	1620	1619	1625	1626	1628	1627	1621	1622	1624	1623	1597	1598	1600	1599	1601	1602	1604	1603	1609	1610	1612	1611	1605	1606	1608	1607	1629	1630	1638	1631	1632	1637	1633	1634	1636	1635	1639	1640	1641	1642	1643	1644	1645	1646	1647	1649	1648	1651	1650	1653	1652	1654	1655	1657	1656	1658	1659	1661	1660	1666	1667	1669	1668	1662	1663	1665	1664	1670	1671	1673	1672	1674	1675	1677	1676	1682	1683	1685	1684	1678	1679	1681	1680	1693	1694	1696	1695	1697	1698	1700	1699	1705	1706	1708	1707	1701	1702	1704	1703	1686	1687	1688	1690	1689	1692	1691	1709	1710	1712	1711	1713	1714	1716	1715	1721	1722	1724	1723	1717	1718	1720	1719	1725	1726	1731	1727	1728	1730	1729	1748	1749	1751	1750	1752	1753	1755	1754	1760	1761	1763	1762	1756	1757	1759	1758	1732	1733	1735	1734	1736	1737	1739	1738	1744	1745	1747	1746	1740	1741	1743	1742	1764	1765	1773	1766	1767	1772	1768	1769	1771	1770	1774	1775	1776	1777	1778	1779	1780	1781	1782	1784	1783	1786	1785	1788	1787	1789	1790	1792	1791	1793	1794	1796	1795	1801	1802	1804	1803	1797	1798	1800	1799	1805	1806	1808	1807	1809	1810	1812	1811	1817	1818	1820	1819	1813	1814	1816	1815	1828	1829	1831	1830	1832	1833	1835	1834	1840	1841	1843	1842	1836	1837	1839	1838	1821	1822	1823	1825	1824	1827	1826	1844	1845	1847	1846	1848	1849	1851	1850	1856	1857	1859	1858	1852	1853	1855	1854	1860	1861	1863	1862	1871	1864	1865	1867	1866	1868	1870	1869	1872	1873	1874	1875	1876	1877	1878	1879	1880	1882	1881	1884	1883	1885	1886	1888	1887	</DataArray>