<?xml version="1.0"?>
<VTKFile type="UnstructuredGrid" version="0.1" byte_order="BigEndian">
<UnstructuredGrid GhostLevel="0">
<Piece NumberOfPoints="7328" NumberOfCells="916" ><Points>
<DataArray type="Float64" NumberOfComponents="3" format="ascii">
1103.3	1903.5	0	1103.3	1903.5	-10	1203.3	1903.5	0	1203.3	1903.5	-10	1203.3	1803.5	0	1203.3	1803.5	-10	1103.3	1803.5	0	1103.3	1803.5	-10	1203.3	1903.5	0	1203.3	1903.5	-10	1253.3	1903.5	0	1253.3	1903.5	-10	1253.3	1853.5	0	1253.3	1853.5	-10	1203.3	1853.5	0	1203.3	1853.5	-10	1253.3	1903.5	0	1253.3	1903.5	-10	1303.3	1903.5	0	1303.3	1903.5	-10	1303.3	1853.5	0	1303.3	1853.5	-10	1253.3	1853.5	0	1253.3	1853.5	-10	1253.3	1853.5	0	1253.3	1853.5	-10	1278.3	1853.5	0	1278.3	1853.5	-10	1278.3	1828.5	0	1278.3	1828.5	-10	1253.3	1828.5	0	1253.3	1828.5	-10	1278.3	1853.5	0	1278.3	1853.5	-10	1303.3	1853.5	0	1303.3	1853.5	-10	1303.3	1828.5	0	1303.3	1828.5	-10	1278.3	1828.5	0	1278.3	1828.5	-10	1278.3	1828.5	0	1278.3	1828.5	-10	1303.3	1828.5	0	1303.3	1828.5	-10	1303.3	1803.5	0	1303.3	1803.5	-10	1278.3	1803.5	0	1278.3	1803.5	-10	1253.3	1828.5	0	1253.3	1828.5	-10	1278.3	1828.5	0	1278.3	1828.5	-10	1278.3	1803.5	0	1278.3	1803.5	-10	1253.3	1803.5	0	1253.3	1803.5	-10	1203.3	1853.5	0	1203.3	1853.5	-10	1253.3	1853.5	0	1253.3	1853.5	-10	1253.3	1803.5	0	1253.3	1803.5	-10	1203.3	1803.5	0	1203.3	1803.5	-10	1303.3	1903.5	0	1303.3	1903.5	-10	1353.3	1903.5	0	1353.3	1903.5	-10	1353.3	1853.5	0	1353.3	1853.5	-10	1303.3	1853.5	0	1303.3	1853.5	-10	1353.3	1903.5	0	1353.3	1903.5	-10	1403.3	1903.5	0	1403.3	1903.5	-10	1403.3	1853.5	0	1403.3	1853.5	-10	1353.3	1853.5	0	1353.3	1853.5	-10	1353.3	1853.5	0	1353.3	1853.5	-10	1403.3	1853.5	0	1403.3	1853.5	-10	1403.3	1803.5	0	1403.3	1803.5	-10	1353.3	1803.5	0	1353.3	1803.5	-10	1303.3	1853.5	0	1303.3	1853.5	-10	1328.3	1853.5	0	1328.3	1853.5	-10	1328.3	1828.5	0	1328.3	1828.5	-10	1303.3	1828.5	0	1303.3	1828.5	-10	1328.3	1853.5	0	1328.3	1853.5	-10	1353.3	1853.5	0	1353.3	1853.5	-10	1353.3	1828.5	0	1353.3	1828.5	-10	1328.3	1828.5	0	1328.3	1828.5	-10	1328.3	1828.5	0	1328.3	1828.5	-10	1353.3	1828.5	0	1353.3	1828.5	-10	1353.3	1803.5	0	1353.3	1803.5	-10	1328.3	1803.5	0	1328.3	1803.5	-10	1303.3	1828.5	0	1303.3	1828.5	-10	1328.3	1828.5	0	1328.3	1828.5	-10	1328.3	1803.5	0	1328.3	1803.5	-10	1303.3	1803.5	0	1303.3	1803.5	-10	1403.3	1903.5	0	1403.3	1903.5	-10	1503.3	1903.5	0	1503.3	1903.5	-10	1503.3	1803.5	0	1503.3	1803.5	-10	1403.3	1803.5	0	1403.3	1803.5	-10	1503.3	1903.5	0	1503.3	1903.5	-10	1603.3	1903.5	0	1603.3	1903.5	-10	1603.3	1803.5	0	1603.3	1803.5	-10	1503.3	1803.5	0	1503.3	1803.5	-10	1603.3	1903.5	0	1603.3	1903.5	-10	1703.3	1903.5	0	1703.3	1903.5	-10	1703.3	1803.5	0	1703.3	1803.5	-10	1603.3	1803.5	0	1603.3	1803.5	-10	1703.3	1903.5	0	1703.3	1903.5	-10	1803.3	1903.5	0	1803.3	1903.5	-10	1803.3	1803.5	0	1803.3	1803.5	-10	1703.3	1803.5	0	1703.3	1803.5	-10	1803.3	1903.5	0	1803.3	1903.5	-10	1903.3	1903.5	0	1903.3	1903.5	-10	1903.3	1803.5	0	1903.3	1803.5	-10	1803.3	1803.5	0	1803.3	1803.5	-10	1103.3	1803.5	0	1103.3	1803.5	-10	1203.3	1803.5	0	1203.3	1803.5	-10	1203.3	1703.5	0	1203.3	1703.5	-10	1103.3	1703.5	0	1103.3	1703.5	-10	1203.3	1803.5	0	1203.3	1803.5	-10	1253.3	1803.5	0	1253.3	1803.5	-10	1253.3	1753.5	0	1253.3	1753.5	-10	1203.3	1753.5	0	1203.3	1753.5	-10	1253.3	1803.5	0	1253.3	1803.5	-10	1278.3	1803.5	0	1278.3	1803.5	-10	1278.3	1778.5	0	1278.3	1778.5	-10	1253.3	1778.5	0	1253.3	1778.5	-10	1278.3	1803.5	0	1278.3	1803.5	-10	1290.8	1803.5	0	1290.8	1803.5	-10	1290.8	1791	0	1290.8	1791	-10	1278.3	1791	0	1278.3	1791	-10	1290.8	1803.5	0	1290.8	1803.5	-10	1303.3	1803.5	0	1303.3	1803.5	-10	1303.3	1791	0	1303.3	1791	-10	1290.8	1791	0	1290.8	1791	-10	1290.8	1791	0	1290.8	1791	-10	1303.3	1791	0	1303.3	1791	-10	1303.3	1778.5	0	1303.3	1778.5	-10	1290.8	1778.5	0	1290.8	1778.5	-10	1278.3	1791	0	1278.3	1791	-10	1290.8	1791	0	1290.8	1791	-10	1290.8	1778.5	0	1290.8	1778.5	-10	1278.3	1778.5	0	1278.3	1778.5	-10	1278.3	1778.5	0	1278.3	1778.5	-10	1290.8	1778.5	0	1290.8	1778.5	-10	1290.8	1766	0	1290.8	1766	-10	1278.3	1766	0	1278.3	1766	-10	1290.8	1778.5	0	1290.8	1778.5	-10	1303.3	1778.5	0	1303.3	1778.5	-10	1303.3	1766	0	1303.3	1766	-10	1290.8	1766	0	1290.8	1766	-10	1290.8	1766	0	1290.8	1766	-10	1303.3	1766	0	1303.3	1766	-10	1303.3	1753.5	0	1303.3	1753.5	-10	1290.8	1753.5	0	1290.8	1753.5	-10	1278.3	1766	0	1278.3	1766	-10	1290.8	1766	0	1290.8	1766	-10	1290.8	1753.5	0	1290.8	1753.5	-10	1278.3	1753.5	0	1278.3	1753.5	-10	1253.3	1778.5	0	1253.3	1778.5	-10	1278.3	1778.5	0	1278.3	1778.5	-10	1278.3	1753.5	0	1278.3	1753.5	-10	1253.3	1753.5	0	1253.3	1753.5	-10	1253.3	1753.5	0	1253.3	1753.5	-10	1278.3	1753.5	0	1278.3	1753.5	-10	1278.3	1728.5	0	1278.3	1728.5	-10	1253.3	1728.5	0	1253.3	1728.5	-10	1278.3	1753.5	0	1278.3	1753.5	-10	1290.8	1753.5	0	1290.8	1753.5	-10	1290.8	1741	0	1290.8	1741	-10	1278.3	1741	0	1278.3	1741	-10	1290.8	1753.5	0	1290.8	1753.5	-10	1303.3	1753.5	0	1303.3	1753.5	-10	1303.3	1741	0	1303.3	1741	-10	1290.8	1741	0	1290.8	1741	-10	1290.8	1741	0	1290.8	1741	-10	1303.3	1741	0	1303.3	1741	-10	1303.3	1728.5	0	1303.3	1728.5	-10	1290.8	1728.5	0	1290.8	1728.5	-10	1278.3	1741	0	1278.3	1741	-10	1290.8	1741	0	1290.8	1741	-10	1290.8	1728.5	0	1290.8	1728.5	-10	1278.3	1728.5	0	1278.3	1728.5	-10	1278.3	1728.5	0	1278.3	1728.5	-10	1290.8	1728.5	0	1290.8	1728.5	-10	1290.8	1716	0	1290.8	1716	-10	1278.3	1716	0	1278.3	1716	-10	1290.8	1728.5	0	1290.8	1728.5	-10	1303.3	1728.5	0	1303.3	1728.5	-10	1303.3	1716	0	1303.3	1716	-10	1290.8	1716	0	1290.8	1716	-10	1290.8	1716	0	1290.8	1716	-10	1303.3	1716	0	1303.3	1716	-10	1303.3	1703.5	0	1303.3	1703.5	-10	1290.8	1703.5	0	1290.8	1703.5	-10	1278.3	1716	0	1278.3	1716	-10	1290.8	1716	0	1290.8	1716	-10	1290.8	1703.5	0	1290.8	1703.5	-10	1278.3	1703.5	0	1278.3	1703.5	-10	1253.3	1728.5	0	1253.3	1728.5	-10	1278.3	1728.5	0	1278.3	1728.5	-10	1278.3	1703.5	0	1278.3	1703.5	-10	1253.3	1703.5	0	1253.3	1703.5	-10	1203.3	1753.5	0	1203.3	1753.5	-10	1253.3	1753.5	0	1253.3	1753.5	-10	1253.3	1703.5	0	1253.3	1703.5	-10	1203.3	1703.5	0	1203.3	1703.5	-10	1303.3	1803.5	0	1303.3	1803.5	-10	1315.8	1803.5	0	1315.8	1803.5	-10	1315.8	1791	0	1315.8	1791	-10	1303.3	1791	0	1303.3	1791	-10	1315.8	1803.5	0	1315.8	1803.5	-10	1328.3	1803.5	0	1328.3	1803.5	-10	1328.3	1791	0	1328.3	1791	-10	1315.8	1791	0	1315.8	1791	-10	1315.8	1791	0	1315.8	1791	-10	1328.3	1791	0	1328.3	1791	-10	1328.3	1778.5	0	1328.3	1778.5	-10	1315.8	1778.5	0	1315.8	1778.5	-10	1303.3	1791	0	1303.3	1791	-10	1315.8	1791	0	1315.8	1791	-10	1315.8	1778.5	0	1315.8	1778.5	-10	1303.3	1778.5	0	1303.3	1778.5	-10	1328.3	1803.5	0	1328.3	1803.5	-10	1353.3	1803.5	0	1353.3	1803.5	-10	1353.3	1778.5	0	1353.3	1778.5	-10	1328.3	1778.5	0	1328.3	1778.5	-10	1328.3	1778.5	0	1328.3	1778.5	-10	1340.8	1778.5	0	1340.8	1778.5	-10	1340.8	1766	0	1340.8	1766	-10	1328.3	1766	0	1328.3	1766	-10	1340.8	1778.5	0	1340.8	1778.5	-10	1353.3	1778.5	0	1353.3	1778.5	-10	1353.3	1766	0	1353.3	1766	-10	1340.8	1766	0	1340.8	1766	-10	1340.8	1766	0	1340.8	1766	-10	1353.3	1766	0	1353.3	1766	-10	1353.3	1753.5	0	1353.3	1753.5	-10	1340.8	1753.5	0	1340.8	1753.5	-10	1328.3	1766	0	1328.3	1766	-10	1340.8	1766	0	1340.8	1766	-10	1340.8	1753.5	0	1340.8	1753.5	-10	1328.3	1753.5	0	1328.3	1753.5	-10	1303.3	1778.5	0	1303.3	1778.5	-10	1315.8	1778.5	0	1315.8	1778.5	-10	1315.8	1766	0	1315.8	1766	-10	1303.3	1766	0	1303.3	1766	-10	1315.8	1778.5	0	1315.8	1778.5	-10	1328.3	1778.5	0	1328.3	1778.5	-10	1328.3	1766	0	1328.3	1766	-10	1315.8	1766	0	1315.8	1766	-10	1315.8	1766	0	1315.8	1766	-10	1328.3	1766	0	1328.3	1766	-10	1328.3	1753.5	0	1328.3	1753.5	-10	1315.8	1753.5	0	1315.8	1753.5	-10	1303.3	1766	0	1303.3	1766	-10	1315.8	1766	0	1315.8	1766	-10	1315.8	1753.5	0	1315.8	1753.5	-10	1303.3	1753.5	0	1303.3	1753.5	-10	1353.3	1803.5	0	1353.3	1803.5	-10	1378.3	1803.5	0	1378.3	1803.5	-10	1378.3	1778.5	0	1378.3	1778.5	-10	1353.3	1778.5	0	1353.3	1778.5	-10	1378.3	1803.5	0	1378.3	1803.5	-10	1403.3	1803.5	0	1403.3	1803.5	-10	1403.3	1778.5	0	1403.3	1778.5	-10	1378.3	1778.5	0	1378.3	1778.5	-10	1378.3	1778.5	0	1378.3	1778.5	-10	1403.3	1778.5	0	1403.3	1778.5	-10	1403.3	1753.5	0	1403.3	1753.5	-10	1378.3	1753.5	0	1378.3	1753.5	-10	1353.3	1778.5	0	1353.3	1778.5	-10	1378.3	1778.5	0	1378.3	1778.5	-10	1378.3	1753.5	0	1378.3	1753.5	-10	1353.3	1753.5	0	1353.3	1753.5	-10	1353.3	1753.5	0	1353.3	1753.5	-10	1365.8	1753.5	0	1365.8	1753.5	-10	1365.8	1741	0	1365.8	1741	-10	1353.3	1741	0	1353.3	1741	-10	1365.8	1753.5	0	1365.8	1753.5	-10	1378.3	1753.5	0	1378.3	1753.5	-10	1378.3	1741	0	1378.3	1741	-10	1365.8	1741	0	1365.8	1741	-10	1365.8	1741	0	1365.8	1741	-10	1378.3	1741	0	1378.3	1741	-10	1378.3	1728.5	0	1378.3	1728.5	-10	1365.8	1728.5	0	1365.8	1728.5	-10	1353.3	1741	0	1353.3	1741	-10	1365.8	1741	0	1365.8	1741	-10	1365.8	1728.5	0	1365.8	1728.5	-10	1353.3	1728.5	0	1353.3	1728.5	-10	1378.3	1753.5	0	1378.3	1753.5	-10	1403.3	1753.5	0	1403.3	1753.5	-10	1403.3	1728.5	0	1403.3	1728.5	-10	1378.3	1728.5	0	1378.3	1728.5	-10	1378.3	1728.5	0	1378.3	1728.5	-10	1403.3	1728.5	0	1403.3	1728.5	-10	1403.3	1703.5	0	1403.3	1703.5	-10	1378.3	1703.5	0	1378.3	1703.5	-10	1353.3	1728.5	0	1353.3	1728.5	-10	1365.8	1728.5	0	1365.8	1728.5	-10	1365.8	1716	0	1365.8	1716	-10	1353.3	1716	0	1353.3	1716	-10	1365.8	1728.5	0	1365.8	1728.5	-10	1378.3	1728.5	0	1378.3	1728.5	-10	1378.3	1716	0	1378.3	1716	-10	1365.8	1716	0	1365.8	1716	-10	1365.8	1716	0	1365.8	1716	-10	1378.3	1716	0	1378.3	1716	-10	1378.3	1703.5	0	1378.3	1703.5	-10	1365.8	1703.5	0	1365.8	1703.5	-10	1353.3	1716	0	1353.3	1716	-10	1365.8	1716	0	1365.8	1716	-10	1365.8	1703.5	0	1365.8	1703.5	-10	1353.3	1703.5	0	1353.3	1703.5	-10	1303.3	1753.5	0	1303.3	1753.5	-10	1315.8	1753.5	0	1315.8	1753.5	-10	1315.8	1741	0	1315.8	1741	-10	1303.3	1741	0	1303.3	1741	-10	1315.8	1753.5	0	1315.8	1753.5	-10	1328.3	1753.5	0	1328.3	1753.5	-10	1328.3	1741	0	1328.3	1741	-10	1315.8	1741	0	1315.8	1741	-10	1315.8	1741	0	1315.8	1741	-10	1328.3	1741	0	1328.3	1741	-10	1328.3	1728.5	0	1328.3	1728.5	-10	1315.8	1728.5	0	1315.8	1728.5	-10	1303.3	1741	0	1303.3	1741	-10	1315.8	1741	0	1315.8	1741	-10	1315.8	1728.5	0	1315.8	1728.5	-10	1303.3	1728.5	0	1303.3	1728.5	-10	1328.
[...]
<CellData Scalars="scalars">
<DataArray type="Int32" Name="nodeid" format="ascii">1	257	258	261	262	264	263	259	265	266	268	269	270	272	271	4	5	6	7	8	9	273	277	281	282	284	283	285	286	288	287	279	289	293	294	296	295	297	298	300	299	291	275	309	310	312	311	306	317	318	320	319	313	314	316	315	321	322	324	323	349	350	352	351	346	348	353	354	356	355	329	330	332	331	333	334	336	335	341	342	344	343	337	338	340	339	357	358	360	359	13	14	15	16	17	361	365	369	370	372	371	368	367	364	363	381	382	384	383	385	386	388	387	393	394	396	395	389	390	392	391	401	402	404	403	405	406	408	407	413	414	416	415	409	410	412	411	429	430	432	431	433	434	436	435	441	442	444	443	437	438	440	439	417	421	422	424	423	420	419	449	450	452	453	454	456	455	446	477	478	480	481	482	484	483	461	462	464	463	465	466	468	467	473	474	476	475	469	470	472	471	485	486	488	487	22	23	24	25	26	489	493	497	498	500	499	496	495	501	502	504	503	491	513	514	516	515	517	518	520	519	525	526	528	527	521	522	524	523	533	534	536	535	530	541	542	544	543	537	538	540	539	565	566	568	567	569	570	572	571	577	578	580	579	573	574	576	575	549	550	552	551	553	554	556	555	557	558	560	559	547	585	586	588	587	582	605	606	608	607	593	594	596	595	590	601	602	604	603	597	598	600	599	609	610	612	611	31	32	33	34	613	614	616	615	621	622	624	623	629	630	632	631	633	634	636	635	637	638	640	639	627	641	642	644	643	619	653	654	656	655	657	658	660	659	665	666	668	667	661	662	664	663	673	674	676	675	670	672	677	678	680	679	701	702	704	703	705	706	708	707	713	714	716	715	709	710	712	711	685	686	688	687	689	690	692	691	693	694	696	695	683	717	718	720	721	722	724	725	726	728	727	39	40	41	42	43	729	730	732	731	737	738	740	739	745	746	748	747	749	750	752	751	757	758	760	759	753	754	756	755	761	765	766	768	767	764	763	735	777	778	780	779	781	782	784	783	789	790	792	791	785	786	788	787	793	794	796	797	798	800	799	821	822	824	823	818	829	830	832	831	825	826	828	827	805	806	808	807	809	810	812	811	813	814	816	815	803	833	834	836	837	838	840	839	48	49	50	51	52	841	842	844	843	849	850	852	851	853	857	858	860	859	856	855	848	847	865	866	868	867	862	864	863	56	57	58	59	60	61	62	63	64	65	869	870	872	871	873	874	876	875	68	69	70	71	72	73	877	881	882	884	883	885	886	888	887	879	893	894	896	895	890	901	902	904	903	897	898	900	899	905	906	908	907	77	78	79	80	81	909	913	914	916	915	912	911	921	922	924	923	925	926	928	927	933	934	936	935	929	930	932	931	941	942	944	943	938	949	950	952	951	945	946	948	947	953	954	956	955	86	87	88	89	90	957	961	962	964	963	960	959	969	970	972	971	973	974	976	975	981	982	984	983	977	978	980	979	985	986	988	989	990	992	991	94	95	96	97	98	99	993	997	998	1000	999	996	995	1005	1006	1008	1007	1009	1010	1012	1011	1017	1018	1020	1019	1013	1014	1016	1015	1021	1022	1024	1025	1026	1028	1027	103	104	105	106	107	108	1029	1033	1034	1036	1035	1037	1038	1040	1039	1031	1045	1046	1048	1047	1049	1050	1052	1051	1057	1058	1060	1059	1053	1054	1056	1055	1061	1062	1064	1063	112	113	114	115	116	1065	1066	1068	1067	1069	1073	1074	1076	1075	1072	1071	1077	1078	1080	1079	120	121	122	123	124	125	126	127	128	129	130	131	132	133	134	135	136	137	1081	1082	1084	1083	1085	1086	1088	1087	140	141	142	143	144	145	1089	1090	1092	1091	1093	1094	1096	1095	1097	1098	1100	1099	149	150	151	152	153	154	1101	1102	1104	1103	1105	1106	1108	1107	1109	1110	1112	1111	158	159	160	161	162	163	1113	1114	1116	1115	1117	1118	1120	1119	1121	1122	1124	1123	167	168	169	170	171	172	1125	1126	1128	1127	1129	1130	1132	1131	175	176	177	178	179	180	181	1133	1134	1136	1135	183	184	185	186	187	188	189	190	191	192	193	194	195	196	197	198	199	200	201	202	203	204	205	206	207	208	209	210	211	212	213	214	215	216	217	218	219	220	221	222	223	224	225	226	227	228	229	230	231	232	233	234	235	236	237	238	239	240	241	242	243	244	245	246	247	248	249	250	251	252	253	254	255	256	</DataArray>
<DataArray type="Int32" Name="nodenumber" format="ascii">1	2	3	5	6	8	7	4	9	10	15	11	12	14	13	16	17	18	19	20	21	22	23	24	25	27	26	29	30	32	31	28	34	35	36	38	37	40	41	43	42	39	33	44	45	47	46	48	53	54	56	55	49	50	52	51	57	58	60	59	77	78	80	79	81	86	82	83	85	84	61	62	64	63	65	66	68	67	73	74	76	75	69	70	72	71	87	88	90	89	91	92	93	94	95	96	97	98	99	101	100	103	102	105	104	106	107	109	108	110	111	113	112	118	119	121	120	114	115	117	116	122	123	125	124	126	127	129	128	134	135	137	136	130	131	133	132	145	146	148	147	149	150	152	151	157	158	160	159	153	154	156	155	138	139	140	142	141	144	143	161	162	167	163	164	166	165	168	185	186	191	187	188	190	189	169	170	172	171	173	174	176	175	181	182	184	183	177	178	180	179	192	193	195	194	196	197	198	199	200	201	202	203	204	206	205	208	207	210	211	213	212	209	214	215	217	216	218	219	221	220	226	227	229	228	222	223	225	224	230	231	233	232	234	239	240	242	241	235	236	238	237	256	257	259	258	260	261	263	262	268	269	271	270	264	265	267	266	243	244	246	245	247	248	250	249	252	253	255	254	251	272	273	275	274	276	290	291	293	292	277	278	280	279	281	286	287	289	288	282	283	285	284	294	295	297	296	298	299	300	301	302	303	305	304	306	307	309	308	310	311	313	312	314	315	317	316	319	320	322	321	318	324	325	327	326	323	328	329	331	330	332	333	335	334	340	341	343	342	336	337	339	338	344	345	347	346	348	353	349	350	352	351	367	368	370	369	371	372	374	373	379	380	382	381	375	376	378	377	354	355	357	356	358	359	361	360	363	364	366	365	362	383	384	392	385	386	391	387	388	390	389	393	394	395	396	397	398	399	401	400	402	403	405	404	406	407	409	408	410	411	413	412	418	419	421	420	414	415	417	416	423	424	425	427	426	429	428	422	430	431	433	432	434	435	437	436	442	443	445	444	438	439	441	440	446	447	452	448	449	451	450	466	467	469	468	470	475	476	478	477	471	472	474	473	453	454	456	455	457	458	460	459	462	463	465	464	461	479	480	485	481	482	484	483	486	487	488	489	490	491	492	494	493	495	496	498	497	499	500	501	503	502	505	504	507	506	508	509	511	510	512	514	513	515	516	517	518	519	520	521	522	523	524	525	526	528	527	529	530	532	531	533	534	535	536	537	538	539	540	541	543	542	545	546	548	547	544	549	550	552	551	553	558	559	561	560	554	555	557	556	562	563	565	564	566	567	568	569	570	571	572	573	575	574	577	576	578	579	581	580	582	583	585	584	590	591	593	592	586	587	589	588	594	595	597	596	598	603	604	606	605	599	600	602	601	607	608	610	609	611	612	613	614	615	616	617	618	620	619	622	621	623	624	626	625	627	628	630	629	635	636	638	637	631	632	634	633	639	640	645	641	642	644	643	646	647	648	649	650	651	652	653	654	656	655	658	657	659	660	662	661	663	664	666	665	671	672	674	673	667	668	670	669	675	676	681	677	678	680	679	682	683	684	685	686	687	688	689	690	692	691	694	695	697	696	693	698	699	701	700	702	703	705	704	710	711	713	712	706	707	709	708	714	715	717	716	718	719	720	721	722	723	724	726	725	727	728	729	731	730	733	732	734	735	737	736	738	739	740	741	742	743	744	745	746	747	748	749	750	751	752	753	754	755	756	757	759	758	760	761	763	762	764	765	766	767	768	769	770	771	773	772	774	775	777	776	778	779	781	780	782	783	784	785	786	787	788	789	791	790	792	793	795	794	796	797	799	798	800	801	802	803	804	805	806	807	809	808	810	811	813	812	814	815	817	816	818	819	820	821	822	823	824	825	827	826	828	829	831	830	832	833	834	835	836	837	838	839	840	842	841	843	844	845	846	847	848	849	850	851	852	853	854	855	856	857	858	859	860	861	862	863	864	865	866	867	868	869	870	871	872	873	874	875	876	877	878	879	880	881	882	883	884	885	886	887	888	889	890	891	892	893	894	895	896	897	898	899	900	901	902	903	904	905	906	907	908	909	910	911	912	913	914	915	916	</DataArray>
<DataArray type="Int32" Name="layer" format="ascii">1	1	1	1	1	1	1	1	1	1	1	1	1	1	1	1	1	1	1	1	1	1	1	1	1	1	1	1	1	1	1	1	1	1	1	1	1	1	1	1	1	1	1	1	1	1	1	1	1	1	1	1	1	1	1	1	1	1	1	1	1	1	1	1	1	1	1	1	1	1	1	1	1	1	1	1	1	1	1	1	1	1	1	1	1	1	1	1	1	1	1	1	1	1	1	1	1	1	1	1	1	1	1	1	1	1	1	1	1	1	1	1	1	1	1	1	1	1	1	1	1	1	1	1	1	1	1	1	1	1	1	1	1	1	1	1	1	1	1	1	1	1	1	1	1	1	1	1	1	1	1	1	1	1	1	1	1	1	1	1	1	1	1	1	1	1	1	1	1	1	1	1	1	1	1	1	1	1	1	1	1	1	1	1	1	1	1	1	1	1	1	1	1	1	1	1	1	1	1	1	1	1	1	1	1	1	1	1	1	1	1	1	1	1	1	1	1	1	1	1	1	1	1	1	1	1	1	1	1	1	1	1	1	1	1	1	1	1	1	1	1	1	1	1	1	1	1	1	1	1	1	1	1	1	1	1	1	1	1	1	1	1	1	1	1	1	1	1	1	1	1	1	1	1	1	1	1	1	1	1	1	1	1	1	1	1	1	1	1	1	1	1	1	1	1	1	1	1	1	1	1	1	1	1	1	1	1	1	1	1	1	1	1	1	1	1	1	1	1	1	1	1	1	1	1	1	1	1	1	1	1	1	1	1	1	1	1	1	1	1	1	1	1	1	1	1	1	1	1	1	1	1	1	1	1	1	1	1	1	1	1	1	1	1	1	1	1	1	1	1	1	1	1	1	1	1	1	1	1	1	1	1	1	1	1	1	1	1	1	1	1	1	1	1	1	1	1	1	1	1	1	1	1	1	1	1	1	1	1	1	1	1	1	1	1	1	1	1	1	1	1	1	1	1	1	1	1	1	1	1	1	1	1	1	1	1	1	1	1	1	1	1	1	1	1	1	1	1	1	1	1	1	1	1	1	1	1	1	1	1	1	1	1	1	1	1	1	1	1	1	1	1	1	1	1	1	1	1	1	1	1	1	1	1	1	1	1	1	1	1	1	1	1	1	1	1	1	1	1	1	1	1	1	1	1	1	1	1	1	1	1	1	1	1	1	1	1	1	1	1	1	1	1	2	2	2	2	2	2	2	2	2	2	2	2	2	2	2	2	2	2	2	2	2	2	2	2	2	2	2	2	2	2	2	2	2	2	2	2	2	2	2	2	2	2	2	2	2	2	2	2	2	2	2	2	2	2	2	2	2	2	2	2	2	2	2	2	2	2	2	2	2	2	2	2	2	2	2	2	2	2	2	2	2	2	2	2	2	2	2	2	2	2	2	2	2	2	2	2	2	2	2	2	2	2	2	2	2	2	2	2	2	2	2	2	2	2	2	2	2	2	2	2	2	2	2	2	2	2	2	2	2	2	2	2	2	2	2	2	2	2	2	2	2	2	2	2	2	2	2	2	2	2	2	2	2	2	2	2	2	2	2	2	2	2	2	2	2	2	2	2	2	2	2	2	2	2	2	2	2	2	2	2	2	2	2	2	2	2	2	2	2	2	2	2	2	2	2	2	2	2	2	2	2	2	2	2	2	2	2	2	2	2	2	2	2	2	2	2	2	2	2	2	2	2	2	3	3	3	3	3	3	3	3	3	3	3	3	3	3	3	3	3	3	3	3	3	3	3	3	3	3	3	3	3	3	3	3	3	3	3	3	3	3	3	3	3	3	3	3	3	3	3	3	3	3	3	3	3	3	3	3	3	3	3	3	3	3	3	3	3	3	3	3	3	3	3	3	3	3	3	3	3	3	3	3	3	3	3	3	3	3	3	3	3	3	3	3	3	3	3	3	3	3	3	3	3	3	3	3	3	3	4	4	4	4	4	4	4	4	4	4	4	4	4	4	4	4	4	4	4	4	4	4	4	4	4	4	4	4	4	4	4	4	4	4	4	4	4	4	4	4	4	4	4	4	4	4	4	4	4	4	4	4	4	4	4	4	4	4	4	4	4	4	4	4	</DataArray>
<DataArray type="Int32" Name="row" format="ascii">1	1	1	1	1	1	1	1	1	1	1	1	1	1	1	1	1	1	1	1	2	2	2	2	2	2	2	2	2	2	2	2	2	2	2	2	2	2	2	2	2	2	2	2	2	2	2	2	2	2	2	2	2	2	2	2	2	2	2	2	2	2	2	2	2	2	2	2	2	2	2	2	2	2	2	2	2	2	2	2	2	2	2	2	2	2	2	2	2	2	2	2	2	2	3	3	3	3	3	3	3	3	3	3	3	3	3	3	3	3	3	3	3	3	3	3	3	3	3	3	3	3	3	3	3	3	3	3	3	3	3	3	3	3	3	3	3	3	3	3	3	3	3	3	3	3	3	3	3	3	3	3	3	3	3	3	3	3	3	3	3	3	3	3	3	3	3	3	3	3	3	3	3	3	3	3	3	3	3	3	3	3	3	3	3	3	3	3	3	3	3	3	3	3	3	3	3	3	4	4	4	4	4	4	4	4	4	4	4	4	4	4	4	4	4	4	4	4	4	4	4	4	4	4	4	4	4	4	4	4	4	4	4	4	4	4	4	4	4	4	4	4	4	4	4	4	4	4	4	4	4	4	4	4	4	4	4	4	4	4	4	4	4	4	4	4	4	4	4	4	4	4	4	4	4	4	4	4	4	4	4	4	4	4	4	4	4	4	4	4	4	4	4	4	4	4	4	4	4	5	5	5	5	5	5	5	5	5	5	5	5	5	5	5	5	5	5	5	5	5	5	5	5	5	5	5	5	5	5	5	5	5	5	5	5	5	5	5	5	5	5	5	5	5	5	5	5	5	5	5	5	5	5	5	5	5	5	5	5	5	5	5	5	5	5	5	5	5	5	5	5	5	5	5	5	5	5	5	5	5	5	5	5	5	5	5	5	5	5	5	5	5	5	5	6	6	6	6	6	6	6	6	6	6	6	6	6	6	6	6	6	6	6	6	6	6	6	6	6	6	6	6	6	6	6	6	6	6	6	6	6	6	6	6	6	6	6	6	6	6	6	6	6	6	6	6	6	6	6	6	6	6	6	6	6	6	6	6	6	6	6	6	6	6	6	6	6	6	6	6	6	6	6	6	6	6	6	6	6	6	6	6	6	6	6	6	7	7	7	7	7	7	7	7	7	7	7	7	7	7	7	7	7	7	7	7	7	7	7	7	7	7	7	7	7	8	8	8	8	8	8	8	8	1	1	1	1	1	1	1	1	1	1	1	1	1	1	2	2	2	2	2	2	2	2	2	2	2	2	2	2	2	2	2	2	2	2	2	2	2	2	2	2	2	2	2	2	2	2	3	3	3	3	3	3	3	3	3	3	3	3	3	3	3	3	3	3	3	3	3	3	3	3	3	3	3	3	3	3	3	3	3	3	3	3	3	3	3	3	3	3	3	3	4	4	4	4	4	4	4	4	4	4	4	4	4	4	4	4	4	4	4	4	4	4	4	4	4	4	4	4	4	4	4	4	4	4	4	5	5	5	5	5	5	5	5	5	5	5	5	5	5	5	5	5	5	5	5	5	5	5	5	5	5	5	5	5	5	5	5	5	5	5	6	6	6	6	6	6	6	6	6	6	6	6	6	6	6	6	6	6	6	6	6	6	6	6	6	6	6	6	6	6	6	6	6	6	6	7	7	7	7	7	7	7	7	7	7	7	7	7	7	7	7	7	7	7	7	8	8	8	8	8	8	8	8	1	1	1	1	1	1	1	1	2	2	2	2	2	2	2	2	2	2	2	2	2	2	3	3	3	3	3	3	3	3	3	3	3	3	3	3	3	3	3	4	4	4	4	4	4	4	4	4	4	4	4	4	4	4	4	4	5	5	5	5	5	5	5	5	5	5	5	5	5	5	5	5	5	6	6	6	6	6	6	6	6	6	6	6	6	6	6	7	7	7	7	7	7	7	7	7	7	7	8	8	8	8	8	8	8	8	1	1	1	1	1	1	1	1	2	2	2	2	2	2	2	2	3	3	3	3	3	3	3	3	4	4	4	4	4	4	4	4	5	5	5	5	5	5	5	5	6	6	6	6	6	6	6	6	7	7	7	7	7	7	7	7	8	8	8	8	8	8	8	8	</DataArray>
<DataArray type="Int32" Name="col" format="ascii">1	2	2	2	2	2	2	2	3	3	3	3	3	3	3	4	5	6	7	8	1	2	2	2	2	2	2	2	2	2	2	2	2	2	2	2	2	2	2	2	2	2	2	3	3	3	3	3	3	3	3	3	3	3	3	3	3	3	3	3	3	3	3	3	3	3	3	3	3	3	3	3	3	3	3	3	3	3	3	3	3	3	3	3	3	3	4	4	4	4	5	6	7	8	1	2	2	2	2	2	2	2	2	2	2	3	3	3	3	3	3	3	3	3	3	3	3	3	3	3	3	3	3	3	3	3	3	3	3	3	3	3	3	3	3	3	3	3	3	3	3	3	3	3	3	3	3	3	3	3	3	3	3	3	3	3	3	3	3	3	4	4	4	4	4	4	4	4	4	4	4	4	4	4	4	4	4	4	4	4	4	4	4	4	4	4	4	4	4	4	4	5	5	5	5	6	7	8	1	2	3	3	3	3	3	3	3	3	3	3	3	3	3	4	4	4	4	4	4	4	4	4	4	4	4	4	4	4	4	4	4	4	4	4	4	4	4	4	4	4	4	4	4	4	4	4	4	4	4	4	4	4	4	4	4	4	4	4	4	4	4	4	4	4	4	4	4	4	4	4	4	5	5	5	5	5	5	5	5	5	5	5	5	5	5	5	5	5	5	5	5	5	5	6	6	6	6	7	8	1	2	3	3	3	3	4	4	4	4	4	4	4	4	4	4	4	4	4	4	4	4	4	4	4	4	4	4	5	5	5	5	5	5	5	5	5	5	5	5	5	5	5	5	5	5	5	5	5	5	5	5	5	5	5	5	5	5	5	5	5	5	5	5	5	5	5	5	5	5	5	5	5	5	5	5	5	5	5	5	5	5	5	6	6	6	6	6	6	6	6	6	6	7	8	1	2	3	4	4	4	4	5	5	5	5	5	5	5	5	5	5	5	5	5	5	5	5	5	5	5	5	5	5	5	5	5	5	5	5	6	6	6	6	6	6	6	6	6	6	6	6	6	6	6	6	6	6	6	6	6	6	6	6	6	6	6	6	6	6	6	6	6	6	6	6	6	6	6	6	6	6	6	6	6	6	6	6	6	7	7	7	7	7	7	7	8	1	2	3	4	5	5	5	5	6	6	6	6	6	6	6	6	6	6	6	6	6	7	7	7	7	7	7	7	8	1	2	3	4	5	6	7	8	1	2	2	2	2	3	3	3	3	4	5	6	7	8	1	2	2	2	2	2	2	2	2	2	2	3	3	3	3	3	3	3	3	3	3	3	3	3	4	4	4	4	5	6	7	8	1	2	2	2	2	2	2	2	3	3	3	3	3	3	3	3	3	3	3	3	3	3	3	3	4	4	4	4	4	4	4	4	4	4	4	4	4	5	5	5	5	6	7	8	1	2	3	3	3	3	3	3	3	4	4	4	4	4	4	4	4	4	4	4	4	4	4	4	4	5	5	5	5	5	5	5	6	7	8	1	2	3	4	4	4	4	4	4	4	5	5	5	5	5	5	5	5	5	5	5	5	5	5	5	5	6	6	6	6	6	6	6	7	8	1	2	3	4	5	5	5	5	5	5	5	5	5	5	6	6	6	6	6	6	6	6	6	6	6	6	6	6	6	6	7	7	7	7	8	1	2	3	4	5	5	5	5	6	6	6	6	6	6	6	7	7	7	7	8	1	2	3	4	5	6	7	8	1	2	3	4	5	6	7	8	1	2	2	2	2	3	3	3	3	4	5	6	7	8	1	2	2	2	2	3	3	3	3	4	4	4	4	5	6	7	8	1	2	3	3	3	3	4	4	4	4	5	5	5	5	6	7	8	1	2	3	4	4	4	4	5	5	5	5	6	6	6	6	7	8	1	2	3	4	5	5	5	5	6	6	6	6	7	8	1	2	3	4	5	6	6	6	6	7	8	1	2	3	4	5	6	7	8	1	2	3	4	5	6	7	8	1	2	3	4	5	6	7	8	1	2	3	4	5	6	7	8	1	2	3	4	5	6	7	8	1	2	3	4	5	6	7	8	1	2	3	4	5	6	7	8	1	2	3	4	5	6	7	8	1	2	3	4	5	6	7	8	</DataArray>
<DataArray type="Int32" Name="vtkid" format="ascii">8	16	24	32	40	48	56	64	72	80	88	96	104	112	120	128	136	144	152	160	168	176	184	192	200	208	216	224	232	240	248	256	264	272	280	288	296	304	312	320	328	336	344	352	360	368	376	384	392	400	408	416	424	432	440	448	456	464	472	480	488	496	504	512	520	528	536	544	552	560	568	576	584	592	600	608	616	624	632	640	648	656	664	672	680	688	696	704	712	720	728	736	744	752	760	768	776	784	792	800	808	816	824	832	840	848	856	864	872	880	888	896	904	912	920	928	936	944	952	960	968	976	984	992	1000	1008	1016	1024	1032	1040	1048	1056	1064	1072	1080	1088	1096	1104	1112	1120	1128	1136	1144	1152	1160	1168	1176	1184	1192	1200	1208	1216	1224	1232	1240	1248	1256	1264	1272	1280	1288	1296	1304	1312	1320	1328	1336	1344	1352	1360	1368	1376	1384	1392	1400	1408	1416	1424	1432	1440	1448	1456	1464	1472	1480	1488	1496	1504	1512	1520	1528	1536	1544	1552	1560	1568	1576	1584	1592	1600	1608	1616	1624	1632	1640	1648	1656	1664	1672	1680	1688	1696	1704	1712	1720	1728	1736	1744	1752	1760	1768	1776	1784	1792	1800	1808	1816	1824	1832	1840	1848	1856	1864	1872	1880	1888	1896	1904	1912	1920	1928	1936	1944	1952	1960	1968	1976	1984	1992	2000	2008	2016	2024	2032	2040	2048	2056	2064	2072	2080	2088	2096	2104	2112	2120	2128	2136	2144	2152	2160	2168	2176	2184	2192	2200	2208	2216	2224	2232	2240	2248	2256	2264	2272	2280	2288	2296	2304	2312	2320	2328	2336	2344	2352	2360	2368	2376	2384	2392	2400	2408	2416	2424	2432	2440	2448	2456	2464	2472	2480	2488	2496	2504	2512	2520	2528	2536	2544	2552	2560	2568	2576	2584	2592	2600	2608	2616	2624	2632	2640	2648	2656	2664	2672	2680	2688	2696	2704	2712	2720	2728	2736	2744	2752	2760	2768	2776	2784	2792	2800	2808	2816	2824	2832	2840	2848	2856	2864	2872	2880	2888	2896	2904	2912	2920	2928	2936	2944	2952	2960	2968	2976	2984	2992	3000	3008	3016	3024	3032	3040	3048	3056	3064	3072	3080	3088	3096	3104	3112	3120	3128	3136	3144	3152	3160	3168	3176	3184	3192	3200	3208	3216	3224	3232	3240	3248	3256	3264	3272	3280	3288	3296	3304	3312	3320	3328	3336	3344	3352	3360	3368	3376	3384	3392	3400	3408	3416	3424	3432	3440	3448	3456	3464	3472	3480	3488	3496	3504	3512	3520	3528	3536	3544	3552	3560	3568	3576	3584	3592	3600	3608	3616	3624	3632	3640	3648	3656	3664	3672	3680	3688	3696	3704	3712	3720	3728	3736	3744	3752	3760	3768	3776	3784	3792	3800	3808	3816	3824	3832	3840	3848	3856	3864	3872	3880	3888	3896	3904	3912	3920	3928	3936	3944	3952	3960	3968	3976	3984	3992	4000	4008	4016	4024	4032	4040	4048	4056	4064	4072	4080	4088	4096	4104	4112	4120	4128	4136	4144	4152	4160	4168	4176	4184	4192	4200	4208	4216	4224	4232	4240	4248	4256	4264	4272	4280	4288	4296	4304	4312	4320	4328	4336	4344	4352	4360	4368	4376	4384	4392	4400	4408	4416	4424	4432	4440	4448	4456	4464	4472	4480	4488	4496	4504	4512	4520	4528	4536	4544	4552	4560	4568	4576	4584	4592	4600	4608	4616	4624	4632	4640	4648	4656	4664	4672	4680	4688	4696	4704	4712	4720	4728	4736	4744	4752	4760	4768	4776	4784	4792	4800	4808	4816	4824	4832	4840	4848	4856	4864	4872	4880	4888	4896	4904	4912	4920	4928	4936	4944	4952	4960	4968	4976	4984	4992	5000	5008	5016	5024	5032	5040	5048	5056	5064	5072	5080	5088	5096	5104	5112	5120	5128	5136	5144	5152	5160	5168	5176	5184	5192	5200	5208	5216	5224	5232	5240	5248	5256	5264	5272	5280	5288	5296	5304	5312	5320	5328	5336	5344	5352	5360	5368	5376	5384	5392	5400	5408	5416	5424	5432	5440	5448	5456	5464	5472	5480	5488	5496	5504	5512	5520	5528	5536	5544	5552	5560	5568	5576	5584	5592	5600	5608	5616	5624	5632	5640	5648	5656	5664	5672	5680	5688	5696	5704	5712	5720	5728	5736	5744	5752	5760	5768	5776	5784	5792	5800	5808	5816	5824	5832	5840	5848	5856	5864	5872	5880	5888	5896	5904	5912	5920	5928	5936	5944	5952	5960	5968	5976	5984	5992	6000	6008	6016	6024	6032	6040	6048	6056	6064	6072	6080	6088	6096	6104	6112	6120	6128	6136	6144	6152	6160	6168	6176	6184	6192	6200	6208	6216	6224	6232	6240	6248	6256	6264	6272	6280	6288	6296	6304	6312	6320	6328	6336	6344	6352	6360	6368	6376	6384	6392	6400	6408	6416	6424	6432	6440	6448	6456	6464	6472	6480	6488	6496	6504	6512	6520	6528	6536	6544	6552	6560	6568	6576	6584	6592	6600	6608	6616	6624	6632	6640	6648	6656	6664	6672	6680	6688	6696	6704	6712	6720	6728	6736	6744	6752	6760	6768	6776	6784	6792	6800	6808	6816	6824	6832	6840	6848	6856	6864	6872	6880	6888	6896	6904	6912	6920	6928	6936	6944	6952	6960	6968	6976	6984	6992	7000	7008	7016	7024	7032	7040	7048	7056	7064	7072	7080	7088	7096	7104	7112	7120	7128	7136	7144	7152	7160	7168	7176	7184	7192	7200	7208	7216	7224	7232	7240	7248	7256	7264	7272	7280	7288	7296	7304	7312	7320	7328	</DataArray>