<?xml version="1.0"?>
<VTKFile type="UnstructuredGrid" version="0.1" byte_order="BigEndian">
<UnstructuredGrid GhostLevel="0">
<Piece NumberOfPoints="1714" NumberOfCells="916" ><Points>
<DataArray type="Float32" NumberOfComponents="3" format="ascii">
1103.3	1903.5	0	1103.3	1803.5	0	1203.3	1903.5	0	1203.3	1803.5	0	1103.3	1903.5	-10	1103.3	1803.5	-10	1203.3	1903.5	-10	1203.3	1803.5	-10	1403.3	1903.5	0	1403.3	1803.5	0	1503.3	1903.5	0	1503.3	1803.5	0	1403.3	1903.5	-10	1403.3	1803.5	-10	1503.3	1903.5	-10	1503.3	1803.5	-10	1603.3	1903.5	0	1603.3	1803.5	0	1603.3	1903.5	-10	1603.3	1803.5	-10	1703.3	1903.5	0	1703.3	1803.5	0	1703.3	1903.5	-10	1703.3	1803.5	-10	1803.3	1903.5	0	1803.3	1803.5	0	1803.3	1903.5	-10	1803.3	1803.5	-10	1903.3	1903.5	0	1903.3	1803.5	0	1903.3	1903.5	-10	1903.3	1803.5	-10	1103.3	1703.5	0	1203.3	1703.5	0	1103.3	1703.5	-10	1203.3	1703.5	-10	1503.3	1703.5	0	1603.3	1703.5	0	1503.3	1703.5	-10	1603.3	1703.5	-10	1703.3	1703.5	0	1703.3	1703.5	-10	1803.3	1703.5	0	1803.3	1703.5	-10	1903.3	1703.5	0	1903.3	1703.5	-10	1103.3	1603.5	0	1203.3	1603.5	0	1103.3	1603.5	-10	1203.3	1603.5	-10	1603.3	1603.5	0	1703.3	1603.5	0	1603.3	1603.5	-10	1703.3	1603.5	-10	1803.3	1603.5	0	1803.3	1603.5	-10	1903.3	1603.5	0	1903.3	1603.5	-10	1103.3	1503.5	0	1203.3	1503.5	0	1103.3	1503.5	-10	1203.3	1503.5	-10	1303.3	1603.5	0	1303.3	1503.5	0	1303.3	1603.5	-10	1303.3	1503.5	-10	1703.3	1503.5	0	1803.3	1503.5	0	1703.3	1503.5	-10	1803.3	1503.5	-10	1903.3	1503.5	0	1903.3	1503.5	-10	1103.3	1403.5	0	1203.3	1403.5	0	1103.3	1403.5	-10	1203.3	1403.5	-10	1303.3	1403.5	0	1303.3	1403.5	-10	1703.3	1403.5	0	1803.3	1403.5	0	1703.3	1403.5	-10	1803.3	1403.5	-10	1903.3	1403.5	0	1903.3	1403.5	-10	1103.3	1303.5	0	1203.3	1303.5	0	1103.3	1303.5	-10	1203.3	1303.5	-10	1303.3	1303.5	0	1303.3	1303.5	-10	1403.3	1403.5	0	1403.3	1303.5	0	1403.3	1403.5	-10	1403.3	1303.5	-10	1803.3	1303.5	0	1903.3	1303.5	0	1803.3	1303.5	-10	1903.3	1303.5	-10	1103.3	1203.5	0	1203.3	1203.5	0	1103.3	1203.5	-10	1203.3	1203.5	-10	1303.3	1203.5	0	1303.3	1203.5	-10	1403.3	1203.5	0	1403.3	1203.5	-10	1503.3	1303.5	0	1503.3	1203.5	0	1503.3	1303.5	-10	1503.3	1203.5	-10	1803.3	1203.5	0	1903.3	1203.5	0	1803.3	1203.5	-10	1903.3	1203.5	-10	1103.3	1103.5	0	1203.3	1103.5	0	1103.3	1103.5	-10	1203.3	1103.5	-10	1303.3	1103.5	0	1303.3	1103.5	-10	1403.3	1103.5	0	1403.3	1103.5	-10	1503.3	1103.5	0	1503.3	1103.5	-10	1603.3	1203.5	0	1603.3	1103.5	0	1603.3	1203.5	-10	1603.3	1103.5	-10	1703.3	1203.5	0	1703.3	1103.5	0	1703.3	1203.5	-10	1703.3	1103.5	-10	1803.3	1103.5	0	1803.3	1103.5	-10	1903.3	1103.5	0	1903.3	1103.5	-10	1103.3	1903.5	-40	1103.3	1803.5	-40	1203.3	1903.5	-40	1203.3	1803.5	-40	1403.3	1903.5	-40	1403.3	1803.5	-40	1503.3	1903.5	-40	1503.3	1803.5	-40	1603.3	1903.5	-40	1603.3	1803.5	-40	1703.3	1903.5	-40	1703.3	1803.5	-40	1803.3	1903.5	-40	1803.3	1803.5	-40	1903.3	1903.5	-40	1903.3	1803.5	-40	1103.3	1703.5	-40	1203.3	1703.5	-40	1503.3	1703.5	-40	1603.3	1703.5	-40	1703.3	1703.5	-40	1803.3	1703.5	-40	1903.3	1703.5	-40	1103.3	1603.5	-40	1203.3	1603.5	-40	1603.3	1603.5	-40	1703.3	1603.5	-40	1803.3	1603.5	-40	1903.3	1603.5	-40	1103.3	1503.5	-40	1203.3	1503.5	-40	1303.3	1603.5	-40	1303.3	1503.5	-40	1603.3	1503.5	-10	1603.3	1503.5	-40	1703.3	1503.5	-40	1803.3	1503.5	-40	1903.3	1503.5	-40	1103.3	1403.5	-40	1203.3	1403.5	-40	1303.3	1403.5	-40	1403.3	1503.5	-10	1403.3	1503.5	-40	1403.3	1403.5	-40	1703.3	1403.5	-40	1803.3	1403.5	-40	1903.3	1403.5	-40	1103.3	1303.5	-40	1203.3	1303.5	-40	1303.3	1303.5	-40	1403.3	1303.5	-40	1503.3	1403.5	-10	1503.3	1403.5	-40	1503.3	1303.5	-40	1803.3	1303.5	-40	1903.3	1303.5	-40	1103.3	1203.5	-40	1203.3	1203.5	-40	1303.3	1203.5	-40	1403.3	1203.5	-40	1503.3	1203.5	-40	1803.3	1203.5	-40	1903.3	1203.5	-40	1103.3	1103.5	-40	1203.3	1103.5	-40	1303.3	1103.5	-40	1403.3	1103.5	-40	1503.3	1103.5	-40	1603.3	1203.5	-40	1603.3	1103.5	-40	1703.3	1203.5	-40	1703.3	1103.5	-40	1803.3	1103.5	-40	1903.3	1103.5	-40	1103.3	1903.5	-70	1103.3	1803.5	-70	1203.3	1903.5	-70	1203.3	1803.5	-70	1303.3	1903.5	-40	1303.3	1803.5	-40	1303.3	1903.5	-70	1303.3	1803.5	-70	1403.3	1903.5	-70	1403.3	1803.5	-70	1503.3	1903.5	-70	1503.3	1803.5	-70	1603.3	1903.5	-70	1603.3	1803.5	-70	1703.3	1903.5	-70	1703.3	1803.5	-70	1803.3	1903.5	-70	1803.3	1803.5	-70	1903.3	1903.5	-70	1903.3	1803.5	-70	1103.3	1703.5	-70	1203.3	1703.5	-70	1403.3	1703.5	-40	1403.3	1703.5	-70	1503.3	1703.5	-70	1603.3	1703.5	-70	1703.3	1703.5	-70	1803.3	1703.5	-70	1903.3	1703.5	-70	1103.3	1603.5	-70	1203.3	1603.5	-70	1503.3	1603.5	-40	1503.3	1603.5	-70	1603.3	1603.5	-70	1703.3	1603.5	-70	1803.3	1603.5	-70	1903.3	1603.5	-70	1103.3	1503.5	-70	1203.3	1503.5	-70	1303.3	1603.5	-70	1303.3	1503.5	-70	1603.3	1503.5	-70	1703.3	1503.5	-70	1803.3	1503.5	-70	1903.3	1503.5	-70	1103.3	1403.5	-70	1203.3	1403.5	-70	1303.3	1403.5	-70	1403.3	1503.5	-70	1403.3	1403.5	-70	1703.3	1403.5	-70	1803.3	1403.5	-70	1903.3	1403.5	-70	1103.3	1303.5	-70	1203.3	1303.5	-70	1303.3	1303.5	-70	1403.3	1303.5	-70	1503.3	1403.5	-70	1503.3	1303.5	-70	1703.3	1303.5	-40	1703.3	1303.5	-70	1803.3	1303.5	-70	1903.3	1303.5	-70	1103.3	1203.5	-70	1203.3	1203.5	-70	1303.3	1203.5	-70	1403.3	1203.5	-70	1503.3	1203.5	-70	1603.3	1303.5	-40	1603.3	1303.5	-70	1603.3	1203.5	-70	1703.3	1203.5	-70	1803.3	1203.5	-70	1903.3	1203.5	-70	1103.3	1103.5	-70	1203.3	1103.5	-70	1303.3	1103.5	-70	1403.3	1103.5	-70	1503.3	1103.5	-70	1603.3	1103.5	-70	1703.3	1103.5	-70	1803.3	1103.5	-70	1903.3	1103.5	-70	1103.3	1903.5	-100	1103.3	1803.5	-100	1203.3	1903.5	-100	1203.3	1803.5	-100	1303.3	1903.5	-100	1303.3	1803.5	-100	1403.3	1903.5	-100	1403.3	1803.5	-100	1503.3	1903.5	-100	1503.3	1803.5	-100	1603.3	1903.5	-100	1603.3	1803.5	-100	1703.3	1903.5	-100	1703.3	1803.5	-100	1803.3	1903.5	-100	1803.3	1803.5	-100	1903.3	1903.5	-100	1903.3	1803.5	-100	1103.3	1703.5	-100	1203.3	1703.5	-100	1303.3	1703.5	-70	1303.3	1703.5	-100	1403.3	1703.5	-100	1503.3	1703.5	-100	1603.3	1703.5	-100	1703.3	1703.5	-100	1803.3	1703.5	-100	1903.3	1703.5	-100	1103.3	1603.5	-100	1203.3	1603.5	-100	1303.3	1603.5	-100	1403.3	1603.5	-70	1403.3	1603.5	-100	1503.3	1603.5	-100	1603.3	1603.5	-100	1703.3	1603.5	-100	1803.3	1603.5	-100	1903.3	1603.5	-100	1103.3	1503.5	-100	1203.3	1503.5	-100	1303.3	1503.5	-100	1403.3	1503.5	-100	1503.3	1503.5	-70	1503.3	1503.5	-100	1603.3	1503.5	-100	1703.3	1503.5	-100	1803.3	1503.5	-100	1903.3	1503.5	-100	1103.3	1403.5	-100	1203.3	1403.5	-100	1303.3	1403.5	-100	1403.3	1403.5	-100	1503.3	1403.5	-100	1603.3	1403.5	-70	1603.3	1403.5	-100	1703.3	1403.5	-100	1803.3	1403.5	-100	1903.3	1403.5	-100	1103.3	1303.5	-100	1203.3	1303.5	-100	1303.3	1303.5	-100	1403.3	1303.5	-100	1503.3	1303.5	-100	1603.3	1303.5	-100	1703.3	1303.5	-100	1803.3	1303.5	-100	1903.3	1303.5	-100	1103.3	1203.5	-100	1203.3	1203.5	-100	1303.3	1203.5	-100	1403.3	1203.5	-100	1503.3	1203.5	-100	1603.3	1203.5	-100	1703.3	1203.5	-100	1803.3	1203.5	-100	1903.3	1203.5	-100	1103.3	1103.5	-100	1203.3	1103.5	-100	1303.3	1103.5	-100	1403.3	1103.5	-100	1503.3	1103.5	-100	1603.3	1103.5	-100	1703.3	1103.5	-100	1803.3	1103.5	-100	1903.3	1103.5	-100	1203.3	1853.5	0	1253.3	1903.5	0	1253.3	1853.5	0	1203.3	1853.5	-10	1253.3	1903.5	-10	1253.3	1853.5	-10	1303.3	1903.5	0	1303.3	1853.5	0	1303.3	1903.5	-10	1303.3	1853.5	-10	1253.3	1803.5	0	1253.3	1803.5	-10	1253.3	1828.5	-0	1278.3	1853.5	0	1278.3	1828.5	0	1253.3	1828.5	-10	1278.3	1853.5	-10	1278.3	1828.5	-10	1303.3	1828.5	0	1303.3	1828.5	-10	1278.3	1803.5	0	1278.3	1803.5	-10	1303.3	1803.5	0	1303.3	1803.5	-10	1353.3	1903.5	0	1353.3	1853.5	0	1353.3	1903.5	-10	1353.3	1853.5	-10	1403.3	1853.5	-0	1403.3	1853.5	-10	1353.3	1803.5	0	1353.3	1803.5	-10	1328.3	1853.5	0	1328.3	1828.5	0	1328.3	1853.5	-10	1328.3	1828.5	-10	1353.3	1828.5	-0	1353.3	1828.5	-10	1328.3	1803.5	0	1328.3	1803.5	-10	1203.3	1753.5	-0	1253.3	1753.5	0	1203.3	1753.5	-10	1253.3	1753.5	-10	1253.3	1703.5	0	1253.3	1703.5	-10	1253.3	1778.5	-0	1278.3	1778.5	0	1253.3	1778.5	-10	1278.3	1778.5	-10	1278.3	1753.5	0	1278.3	1753.5	-10	1278.3	1791	0	1290.8	1803.5	-0	1290.8	1791	0	1278.3	1791	-10	1290.8	1803.5	-10	1290.8	1791	-10	1303.3	1791	0	1303.3	1791	-10	1290.8	1778.5	0	1290.8	1778.5	-10	1303.3	1778.5	0	1303.3	1778.5	-10	1278.3	1766	0	1290.8	1766	0	1278.3	1766	-10	1290.8	1766	-10	1303.3	1766	0	1303.3	1766	-10	1290.8	1753.5	0	1290.8	1753.5	-10	1303.3	1753.5	0	1303.3	1753.5	-10	1253.3	1728.5	-0	1278.3	1728.5	0	1253.3	1728.5	-10	1278.3	1728.5	-10	1278.3	1703.5	0	1278.3	1703.5	-10	1278.3	1741	-0	1290.8	1741	0	1278.3	1741	-10	1290.8	1741	-10	1303.3	1741	0	1303.3	1741	-10	1290.8	1728.5	0	1290.8	1728.5	-10	1303.3	1728.5	0	1303.3	1728.5	-10	1278.3	1716	0	1290.8	1716	0	1278.3	1716	-10	1290.8	1716	-10	1303.3	1716	0	1303.3	1716	-10	1290.8	1703.5	0	1290.8	1703.5	-10	1303.3	1703.5	0	1303.3	1703.5	-10	1328.3	1778.5	0	1353.3	1778.5	0	1328.3	1778.5	-10	1353.3	1778.5	-10	1315.8	1803.5	-0	1315.8	1791	0	1315.8	1803.5	-10	1315.8	1791	-10	1328.3	1791	-0	1328.3	1791	-10	1315.8	1778.5	0	1315.8	1778.5	-10	1315.8	1766	0	1315.8	1766	-10	1328.3	1766	0	1328.3	1766	-10	1315.8	1753.5	0	1315.8	1753.5	-10	1328.3	1753.5	0	1328.3	1753.5	-10	1340.8	1778.5	-0	1340.8	1766	0	1340.8	1778.5	-10	1340.8	1766	-10	1353.3	1766	-0	1353.3	1766	-10	1340.8	1753.5	0	1340.8	1753.5	-10	1353.3	1753.5	0	1353.3	1753.5	-10	1378.3	1803.5	-0	1378.3	1778.5	0	1378.3	1803.5	-10	1378.3	1778.5	-10	1403.3	1778.5	0	1403.3	1778.5	-10	1378.3	1753.5	0	1378.3	1753.5	-10	1403.3	1753.5	0	1403.3	1753.5	-10	1315.8	1741	0	1315.8	1741	-10	1328.3	1741	0	1328.3	1741	-10	1315.8	1728.5	0	1315.8	1728.5	-10	1328.3	1728.5	0	1328.3	1728.5	-10	1340.8	1741	0	1340.8	1741	-10	1353.3	1741	0	1353.3	1741	-10	1340.8	1728.5	0	1340.8	1728.5	-10	1353.3	1728.5	0	1353.3	1728.5	-10	1315.8	1716	0	1315.8	1716	-10	1328.3	1716	0	1328.3	1716	-10	1315.8	1703.5	0	1315.8	1703.5	-10	1328.3	1703.5	0	1328.3	1703.5	-10	1340.8	1716	0	1340.8	1716	-10	1353.3	1716	0	1353.3	1716	-10	1340.8	1703.5	0	1340.8	1703.5	-10	1353.3	1703.5	0	1353.3	1703.5	-10	1378.3	1728.5	0	1403.3	1728.5	-0	1378.3	1728.5	-10	1403.3	1728.5	-10	1378.3	1703.5	0	1403.3	1703.5	0	1378.3	1703.5	-10	1403.3	1703.5	-10	1365.8	1753.5	-0	1365.8	1741	0
[...]
<CellData Scalars="scalars">
<DataArray type="Int32" Name="nodeid" format="ascii">1	257	258	261	262	264	263	259	265	266	268	269	270	272	271	4	5	6	7	8	9	273	277	281	282	284	283	285	286	288	287	279	289	293	294	296	295	297	298	300	299	291	275	309	310	312	311	306	317	318	320	319	313	314	316	315	321	322	324	323	349	350	352	351	346	348	353	354	356	355	329	330	332	331	333	334	336	335	341	342	344	343	337	338	340	339	357	358	360	359	13	14	15	16	17	361	365	369	370	372	371	368	367	364	363	381	382	384	383	385	386	388	387	393	394	396	395	389	390	392	391	401	402	404	403	405	406	408	407	413	414	416	415	409	410	412	411	429	430	432	431	433	434	436	435	441	442	444	443	437	438	440	439	417	421	422	424	423	420	419	449	450	452	453	454	456	455	446	477	478	480	481	482	484	483	461	462	464	463	465	466	468	467	473	474	476	475	469	470	472	471	485	486	488	487	22	23	24	25	26	489	493	497	498	500	499	496	495	501	502	504	503	491	513	514	516	515	517	518	520	519	525	526	528	527	521	522	524	523	533	534	536	535	530	541	542	544	543	537	538	540	539	565	566	568	567	569	570	572	571	577	578	580	579	573	574	576	575	549	550	552	551	553	554	556	555	557	558	560	559	547	585	586	588	587	582	605	606	608	607	593	594	596	595	590	601	602	604	603	597	598	600	599	609	610	612	611	31	32	33	34	613	614	616	615	621	622	624	623	629	630	632	631	633	634	636	635	637	638	640	639	627	641	642	644	643	619	653	654	656	655	657	658	660	659	665	666	668	667	661	662	664	663	673	674	676	675	670	672	677	678	680	679	701	702	704	703	705	706	708	707	713	714	716	715	709	710	712	711	685	686	688	687	689	690	692	691	693	694	696	695	683	717	718	720	721	722	724	725	726	728	727	39	40	41	42	43	729	730	732	731	737	738	740	739	745	746	748	747	749	750	752	751	757	758	760	759	753	754	756	755	761	765	766	768	767	764	763	735	777	778	780	779	781	782	784	783	789	790	792	791	785	786	788	787	793	794	796	797	798	800	799	821	822	824	823	818	829	830	832	831	825	826	828	827	805	806	808	807	809	810	812	811	813	814	816	815	803	833	834	836	837	838	840	839	48	49	50	51	52	841	842	844	843	849	850	852	851	853	857	858	860	859	856	855	848	847	865	866	868	867	862	864	863	56	57	58	59	60	61	62	63	64	65	869	870	872	871	873	874	876	875	68	69	70	71	72	73	877	881	882	884	883	885	886	888	887	879	893	894	896	895	890	901	902	904	903	897	898	900	899	905	906	908	907	77	78	79	80	81	909	913	914	916	915	912	911	921	922	924	923	925	926	928	927	933	934	936	935	929	930	932	931	941	942	944	943	938	949	950	952	951	945	946	948	947	953	954	956	955	86	87	88	89	90	957	961	962	964	963	960	959	969	970	972	971	973	974	976	975	981	982	984	983	977	978	980	979	985	986	988	989	990	992	991	94	95	96	97	98	99	993	997	998	1000	999	996	995	1005	1006	1008	1007	1009	1010	1012	1011	1017	1018	1020	1019	1013	1014	1016	1015	1021	1022	1024	1025	1026	1028	1027	103	104	105	106	107	108	1029	1033	1034	1036	1035	1037	1038	1040	1039	1031	1045	1046	1048	1047	1049	1050	1052	1051	1057	1058	1060	1059	1053	1054	1056	1055	1061	1062	1064	1063	112	113	114	115	116	1065	1066	1068	1067	1069	1073	1074	1076	1075	1072	1071	1077	1078	1080	1079	120	121	122	123	124	125	126	127	128	129	130	131	132	133	134	135	136	137	1081	1082	1084	1083	1085	1086	1088	1087	140	141	142	143	144	145	1089	1090	1092	1091	1093	1094	1096	1095	1097	1098	1100	1099	149	150	151	152	153	154	1101	1102	1104	1103	1105	1106	1108	1107	1109	1110	1112	1111	158	159	160	161	162	163	1113	1114	1116	1115	1117	1118	1120	1119	1121	1122	1124	1123	167	168	169	170	171	172	1125	1126	1128	1127	1129	1130	1132	1131	175	176	177	178	179	180	181	1133	1134	1136	1135	183	184	185	186	187	188	189	190	191	192	193	194	195	196	197	198	199	200	201	202	203	204	205	206	207	208	209	210	211	212	213	214	215	216	217	218	219	220	221	222	223	224	225	226	227	228	229	230	231	232	233	234	235	236	237	238	239	240	241	242	243	244	245	246	247	248	249	250	251	252	253	254	255	256	</DataArray>
<DataArray type="Int32" Name="nodenumber" format="ascii">1	2	3	5	6	8	7	4	9	10	15	11	12	14	13	16	17	18	19	20	21	22	23	24	25	27	26	29	30	32	31	28	34	35	36	38	37	40	41	43	42	39	33	44	45	47	46	48	53	54	56	55	49	50	52	51	57	58	60	59	77	78	80	79	81	86	82	83	85	84	61	62	64	63	65	66	68	67	73	74	76	75	69	70	72	71	87	88	90	89	91	92	93	94	95	96	97	98	99	101	100	103	102	105	104	106	107	109	108	110	111	113	112	118	119	121	120	114	115	117	116	122	123	125	124	126	127	129	128	134	135	137	136	130	131	133	132	145	146	148	147	149	150	152	151	157	158	160	159	153	154	156	155	138	139	140	142	141	144	143	161	162	167	163	164	166	165	168	185	186	191	187	188	190	189	169	170	172	171	173	174	176	175	181	182	184	183	177	178	180	179	192	193	195	194	196	197	198	199	200	201	202	203	204	206	205	208	207	210	211	213	212	209	214	215	217	216	218	219	221	220	226	227	229	228	222	223	225	224	230	231	233	232	234	239	240	242	241	235	236	238	237	256	257	259	258	260	261	263	262	268	269	271	270	264	265	267	266	243	244	246	245	247	248	250	249	252	253	255	254	251	272	273	275	274	276	290	291	293	292	277	278	280	279	281	286	287	289	288	282	283	285	284	294	295	297	296	298	299	300	301	302	303	305	304	306	307	309	308	310	311	313	312	314	315	317	316	319	320	322	321	318	324	325	327	326	323	328	329	331	330	332	333	335	334	340	341	343	342	336	337	339	338	344	345	347	346	348	353	349	350	352	351	367	368	370	369	371	372	374	373	379	380	382	381	375	376	378	377	354	355	357	356	358	359	361	360	363	364	366	365	362	383	384	392	385	386	391	387	388	390	389	393	394	395	396	397	398	399	401	400	402	403	405	404	406	407	409	408	410	411	413	412	418	419	421	420	414	415	417	416	423	424	425	427	426	429	428	422	430	431	433	432	434	435	437	436	442	443	445	444	438	439	441	440	446	447	452	448	449	451	450	466	467	469	468	470	475	476	478	477	471	472	474	473	453	454	456	455	457	458	460	459	462	463	465	464	461	479	480	485	481	482	484	483	486	487	488	489	490	491	492	494	493	495	496	498	497	499	500	501	503	502	505	504	507	506	508	509	511	510	512	514	513	515	516	517	518	519	520	521	522	523	524	525	526	528	527	529	530	532	531	533	534	535	536	537	538	539	540	541	543	542	545	546	548	547	544	549	550	552	551	553	558	559	561	560	554	555	557	556	562	563	565	564	566	567	568	569	570	571	572	573	575	574	577	576	578	579	581	580	582	583	585	584	590	591	593	592	586	587	589	588	594	595	597	596	598	603	604	606	605	599	600	602	601	607	608	610	609	611	612	613	614	615	616	617	618	620	619	622	621	623	624	626	625	627	628	630	629	635	636	638	637	631	632	634	633	639	640	645	641	642	644	643	646	647	648	649	650	651	652	653	654	656	655	658	657	659	660	662	661	663	664	666	665	671	672	674	673	667	668	670	669	675	676	681	677	678	680	679	682	683	684	685	686	687	688	689	690	692	691	694	695	697	696	693	698	699	701	700	702	703	705	704	710	711	713	712	706	707	709	708	714	715	717	716	718	719	720	721	722	723	724	726	725	727	728	729	731	730	733	732	734	735	737	736	738	739	740	741	742	743	744	745	746	747	748	749	750	751	752	753	754	755	756	757	759	758	760	761	763	762	764	765	766	767	768	769	770	771	773	772	774	775	777	776	778	779	781	780	782	783	784	785	786	787	788	789	791	790	792	793	795	794	796	797	799	798	800	801	802	803	804	805	806	807	809	808	810	811	813	812	814	815	817	816	818	819	820	821	822	823	824	825	827	826	828	829	831	830	832	833	834	835	836	837	838	839	840	842	841	843	844	845	846	847	848	849	850	851	852	853	854	855	856	857	858	859	860	861	862	863	864	865	866	867	868	869	870	871	872	873	874	875	876	877	878	879	880	881	882	883	884	885	886	887	888	889	890	891	892	893	894	895	896	897	898	899	900	901	902	903	904	905	906	907	908	909	910	911	912	913	914	915	916	</DataArray>
<DataArray type="Int32" Name="layer" format="ascii">1	1	1	1	1	1	1	1	1	1	1	1	1	1	1	1	1	1	1	1	1	1	1	1	1	1	1	1	1	1	1	1	1	1	1	1	1	1	1	1	1	1	1	1	1	1	1	1	1	1	1	1	1	1	1	1	1	1	1	1	1	1	1	1	1	1	1	1	1	1	1	1	1	1	1	1	1	1	1	1	1	1	1	1	1	1	1	1	1	1	1	1	1	1	1	1	1	1	1	1	1	1	1	1	1	1	1	1	1	1	1	1	1	1	1	1	1	1	1	1	1	1	1	1	1	1	1	1	1	1	1	1	1	1	1	1	1	1	1	1	1	1	1	1	1	1	1	1	1	1	1	1	1	1	1	1	1	1	1	1	1	1	1	1	1	1	1	1	1	1	1	1	1	1	1	1	1	1	1	1	1	1	1	1	1	1	1	1	1	1	1	1	1	1	1	1	1	1	1	1	1	1	1	1	1	1	1	1	1	1	1	1	1	1	1	1	1	1	1	1	1	1	1	1	1	1	1	1	1	1	1	1	1	1	1	1	1	1	1	1	1	1	1	1	1	1	1	1	1	1	1	1	1	1	1	1	1	1	1	1	1	1	1	1	1	1	1	1	1	1	1	1	1	1	1	1	1	1	1	1	1	1	1	1	1	1	1	1	1	1	1	1	1	1	1	1	1	1	1	1	1	1	1	1	1	1	1	1	1	1	1	1	1	1	1	1	1	1	1	1	1	1	1	1	1	1	1	1	1	1	1	1	1	1	1	1	1	1	1	1	1	1	1	1	1	1	1	1	1	1	1	1	1	1	1	1	1	1	1	1	1	1	1	1	1	1	1	1	1	1	1	1	1	1	1	1	1	1	1	1	1	1	1	1	1	1	1	1	1	1	1	1	1	1	1	1	1	1	1	1	1	1	1	1	1	1	1	1	1	1	1	1	1	1	1	1	1	1	1	1	1	1	1	1	1	1	1	1	1	1	1	1	1	1	1	1	1	1	1	1	1	1	1	1	1	1	1	1	1	1	1	1	1	1	1	1	1	1	1	1	1	1	1	1	1	1	1	1	1	1	1	1	1	1	1	1	1	1	1	1	1	1	1	1	1	1	1	1	1	1	1	1	1	1	1	1	1	1	1	1	1	1	1	1	1	1	1	1	1	1	1	1	1	1	1	1	1	1	1	1	1	1	1	2	2	2	2	2	2	2	2	2	2	2	2	2	2	2	2	2	2	2	2	2	2	2	2	2	2	2	2	2	2	2	2	2	2	2	2	2	2	2	2	2	2	2	2	2	2	2	2	2	2	2	2	2	2	2	2	2	2	2	2	2	2	2	2	2	2	2	2	2	2	2	2	2	2	2	2	2	2	2	2	2	2	2	2	2	2	2	2	2	2	2	2	2	2	2	2	2	2	2	2	2	2	2	2	2	2	2	2	2	2	2	2	2	2	2	2	2	2	2	2	2	2	2	2	2	2	2	2	2	2	2	2	2	2	2	2	2	2	2	2	2	2	2	2	2	2	2	2	2	2	2	2	2	2	2	2	2	2	2	2	2	2	2	2	2	2	2	2	2	2	2	2	2	2	2	2	2	2	2	2	2	2	2	2	2	2	2	2	2	2	2	2	2	2	2	2	2	2	2	2	2	2	2	2	2	2	2	2	2	2	2	2	2	2	2	2	2	2	2	2	2	2	2	3	3	3	3	3	3	3	3	3	3	3	3	3	3	3	3	3	3	3	3	3	3	3	3	3	3	3	3	3	3	3	3	3	3	3	3	3	3	3	3	3	3	3	3	3	3	3	3	3	3	3	3	3	3	3	3	3	3	3	3	3	3	3	3	3	3	3	3	3	3	3	3	3	3	3	3	3	3	3	3	3	3	3	3	3	3	3	3	3	3	3	3	3	3	3	3	3	3	3	3	3	3	3	3	3	3	4	4	4	4	4	4	4	4	4	4	4	4	4	4	4	4	4	4	4	4	4	4	4	4	4	4	4	4	4	4	4	4	4	4	4	4	4	4	4	4	4	4	4	4	4	4	4	4	4	4	4	4	4	4	4	4	4	4	4	4	4	4	4	4	</DataArray>
<DataArray type="Int32" Name="row" format="ascii">1	1	1	1	1	1	1	1	1	1	1	1	1	1	1	1	1	1	1	1	2	2	2	2	2	2	2	2	2	2	2	2	2	2	2	2	2	2	2	2	2	2	2	2	2	2	2	2	2	2	2	2	2	2	2	2	2	2	2	2	2	2	2	2	2	2	2	2	2	2	2	2	2	2	2	2	2	2	2	2	2	2	2	2	2	2	2	2	2	2	2	2	2	2	3	3	3	3	3	3	3	3	3	3	3	3	3	3	3	3	3	3	3	3	3	3	3	3	3	3	3	3	3	3	3	3	3	3	3	3	3	3	3	3	3	3	3	3	3	3	3	3	3	3	3	3	3	3	3	3	3	3	3	3	3	3	3	3	3	3	3	3	3	3	3	3	3	3	3	3	3	3	3	3	3	3	3	3	3	3	3	3	3	3	3	3	3	3	3	3	3	3	3	3	3	3	3	3	4	4	4	4	4	4	4	4	4	4	4	4	4	4	4	4	4	4	4	4	4	4	4	4	4	4	4	4	4	4	4	4	4	4	4	4	4	4	4	4	4	4	4	4	4	4	4	4	4	4	4	4	4	4	4	4	4	4	4	4	4	4	4	4	4	4	4	4	4	4	4	4	4	4	4	4	4	4	4	4	4	4	4	4	4	4	4	4	4	4	4	4	4	4	4	4	4	4	4	4	4	5	5	5	5	5	5	5	5	5	5	5	5	5	5	5	5	5	5	5	5	5	5	5	5	5	5	5	5	5	5	5	5	5	5	5	5	5	5	5	5	5	5	5	5	5	5	5	5	5	5	5	5	5	5	5	5	5	5	5	5	5	5	5	5	5	5	5	5	5	5	5	5	5	5	5	5	5	5	5	5	5	5	5	5	5	5	5	5	5	5	5	5	5	5	5	6	6	6	6	6	6	6	6	6	6	6	6	6	6	6	6	6	6	6	6	6	6	6	6	6	6	6	6	6	6	6	6	6	6	6	6	6	6	6	6	6	6	6	6	6	6	6	6	6	6	6	6	6	6	6	6	6	6	6	6	6	6	6	6	6	6	6	6	6	6	6	6	6	6	6	6	6	6	6	6	6	6	6	6	6	6	6	6	6	6	6	6	7	7	7	7	7	7	7	7	7	7	7	7	7	7	7	7	7	7	7	7	7	7	7	7	7	7	7	7	7	8	8	8	8	8	8	8	8	1	1	1	1	1	1	1	1	1	1	1	1	1	1	2	2	2	2	2	2	2	2	2	2	2	2	2	2	2	2	2	2	2	2	2	2	2	2	2	2	2	2	2	2	2	2	3	3	3	3	3	3	3	3	3	3	3	3	3	3	3	3	3	3	3	3	3	3	3	3	3	3	3	3	3	3	3	3	3	3	3	3	3	3	3	3	3	3	3	3	4	4	4	4	4	4	4	4	4	4	4	4	4	4	4	4	4	4	4	4	4	4	4	4	4	4	4	4	4	4	4	4	4	4	4	5	5	5	5	5	5	5	5	5	5	5	5	5	5	5	5	5	5	5	5	5	5	5	5	5	5	5	5	5	5	5	5	5	5	5	6	6	6	6	6	6	6	6	6	6	6	6	6	6	6	6	6	6	6	6	6	6	6	6	6	6	6	6	6	6	6	6	6	6	6	7	7	7	7	7	7	7	7	7	7	7	7	7	7	7	7	7	7	7	7	8	8	8	8	8	8	8	8	1	1	1	1	1	1	1	1	2	2	2	2	2	2	2	2	2	2	2	2	2	2	3	3	3	3	3	3	3	3	3	3	3	3	3	3	3	3	3	4	4	4	4	4	4	4	4	4	4	4	4	4	4	4	4	4	5	5	5	5	5	5	5	5	5	5	5	5	5	5	5	5	5	6	6	6	6	6	6	6	6	6	6	6	6	6	6	7	7	7	7	7	7	7	7	7	7	7	8	8	8	8	8	8	8	8	1	1	1	1	1	1	1	1	2	2	2	2	2	2	2	2	3	3	3	3	3	3	3	3	4	4	4	4	4	4	4	4	5	5	5	5	5	5	5	5	6	6	6	6	6	6	6	6	7	7	7	7	7	7	7	7	8	8	8	8	8	8	8	8	</DataArray>
<DataArray type="Int32" Name="col" format="ascii">1	2	2	2	2	2	2	2	3	3	3	3	3	3	3	4	5	6	7	8	1	2	2	2	2	2	2	2	2	2	2	2	2	2	2	2	2	2	2	2	2	2	2	3	3	3	3	3	3	3	3	3	3	3	3	3	3	3	3	3	3	3	3	3	3	3	3	3	3	3	3	3	3	3	3	3	3	3	3	3	3	3	3	3	3	3	4	4	4	4	5	6	7	8	1	2	2	2	2	2	2	2	2	2	2	3	3	3	3	3	3	3	3	3	3	3	3	3	3	3	3	3	3	3	3	3	3	3	3	3	3	3	3	3	3	3	3	3	3	3	3	3	3	3	3	3	3	3	3	3	3	3	3	3	3	3	3	3	3	3	4	4	4	4	4	4	4	4	4	4	4	4	4	4	4	4	4	4	4	4	4	4	4	4	4	4	4	4	4	4	4	5	5	5	5	6	7	8	1	2	3	3	3	3	3	3	3	3	3	3	3	3	3	4	4	4	4	4	4	4	4	4	4	4	4	4	4	4	4	4	4	4	4	4	4	4	4	4	4	4	4	4	4	4	4	4	4	4	4	4	4	4	4	4	4	4	4	4	4	4	4	4	4	4	4	4	4	4	4	4	4	5	5	5	5	5	5	5	5	5	5	5	5	5	5	5	5	5	5	5	5	5	5	6	6	6	6	7	8	1	2	3	3	3	3	4	4	4	4	4	4	4	4	4	4	4	4	4	4	4	4	4	4	4	4	4	4	5	5	5	5	5	5	5	5	5	5	5	5	5	5	5	5	5	5	5	5	5	5	5	5	5	5	5	5	5	5	5	5	5	5	5	5	5	5	5	5	5	5	5	5	5	5	5	5	5	5	5	5	5	5	5	6	6	6	6	6	6	6	6	6	6	7	8	1	2	3	4	4	4	4	5	5	5	5	5	5	5	5	5	5	5	5	5	5	5	5	5	5	5	5	5	5	5	5	5	5	5	5	6	6	6	6	6	6	6	6	6	6	6	6	6	6	6	6	6	6	6	6	6	6	6	6	6	6	6	6	6	6	6	6	6	6	6	6	6	6	6	6	6	6	6	6	6	6	6	6	6	7	7	7	7	7	7	7	8	1	2	3	4	5	5	5	5	6	6	6	6	6	6	6	6	6	6	6	6	6	7	7	7	7	7	7	7	8	1	2	3	4	5	6	7	8	1	2	2	2	2	3	3	3	3	4	5	6	7	8	1	2	2	2	2	2	2	2	2	2	2	3	3	3	3	3	3	3	3	3	3	3	3	3	4	4	4	4	5	6	7	8	1	2	2	2	2	2	2	2	3	3	3	3	3	3	3	3	3	3	3	3	3	3	3	3	4	4	4	4	4	4	4	4	4	4	4	4	4	5	5	5	5	6	7	8	1	2	3	3	3	3	3	3	3	4	4	4	4	4	4	4	4	4	4	4	4	4	4	4	4	5	5	5	5	5	5	5	6	7	8	1	2	3	4	4	4	4	4	4	4	5	5	5	5	5	5	5	5	5	5	5	5	5	5	5	5	6	6	6	6	6	6	6	7	8	1	2	3	4	5	5	5	5	5	5	5	5	5	5	6	6	6	6	6	6	6	6	6	6	6	6	6	6	6	6	7	7	7	7	8	1	2	3	4	5	5	5	5	6	6	6	6	6	6	6	7	7	7	7	8	1	2	3	4	5	6	7	8	1	2	3	4	5	6	7	8	1	2	2	2	2	3	3	3	3	4	5	6	7	8	1	2	2	2	2	3	3	3	3	4	4	4	4	5	6	7	8	1	2	3	3	3	3	4	4	4	4	5	5	5	5	6	7	8	1	2	3	4	4	4	4	5	5	5	5	6	6	6	6	7	8	1	2	3	4	5	5	5	5	6	6	6	6	7	8	1	2	3	4	5	6	6	6	6	7	8	1	2	3	4	5	6	7	8	1	2	3	4	5	6	7	8	1	2	3	4	5	6	7	8	1	2	3	4	5	6	7	8	1	2	3	4	5	6	7	8	1	2	3	4	5	6	7	8	1	2	3	4	5	6	7	8	1	2	3	4	5	6	7	8	1	2	3	4	5	6	7	8	</DataArray>
<DataArray type="Int32" Name="vtkid" format="ascii">0	1	2	3	4	5	6	7	8	9	10	11	12	13	14	15	16	17	18	19	20	21	22	23	24	25	26	27	28	29	30	31	32	33	34	35	36	37	38	39	40	41	42	43	44	45	46	47	48	49	50	51	52	53	54	55	56	57	58	59	60	61	62	63	64	65	66	67	68	69	70	71	72	73	74	75	76	77	78	79	80	81	82	83	84	85	86	87	88	89	90	91	92	93	94	95	96	97	98	99	100	101	102	103	104	105	106	107	108	109	110	111	112	113	114	115	116	117	118	119	120	121	122	123	124	125	126	127	128	129	130	131	132	133	134	135	136	137	138	139	140	141	142	143	144	145	146	147	148	149	150	151	152	153	154	155	156	157	158	159	160	161	162	163	164	165	166	167	168	169	170	171	172	173	174	175	176	177	178	179	180	181	182	183	184	185	186	187	188	189	190	191	192	193	194	195	196	197	198	199	200	201	202	203	204	205	206	207	208	209	210	211	212	213	214	215	216	217	218	219	220	221	222	223	224	225	226	227	228	229	230	231	232	233	234	235	236	237	238	239	240	241	242	243	244	245	246	247	248	249	250	251	252	253	254	255	256	257	258	259	260	261	262	263	264	265	266	267	268	269	270	271	272	273	274	275	276	277	278	279	280	281	282	283	284	285	286	287	288	289	290	291	292	293	294	295	296	297	298	299	300	301	302	303	304	305	306	307	308	309	310	311	312	313	314	315	316	317	318	319	320	321	322	323	324	325	326	327	328	329	330	331	332	333	334	335	336	337	338	339	340	341	342	343	344	345	346	347	348	349	350	351	352	353	354	355	356	357	358	359	360	361	362	363	364	365	366	367	368	369	370	371	372	373	374	375	376	377	378	379	380	381	382	383	384	385	386	387	388	389	390	391	392	393	394	395	396	397	398	399	400	401	402	403	404	405	406	407	408	409	410	411	412	413	414	415	416	417	418	419	420	421	422	423	424	425	426	427	428	429	430	431	432	433	434	435	436	437	438	439	440	441	442	443	444	445	446	447	448	449	450	451	452	453	454	455	456	457	458	459	460	461	462	463	464	465	466	467	468	469	470	471	472	473	474	475	476	477	478	479	480	481	482	483	484	485	486	487	488	489	490	491	492	493	494	495	496	497	498	499	500	501	502	503	504	505	506	507	508	509	510	511	512	513	514	515	516	517	518	519	520	521	522	523	524	525	526	527	528	529	530	531	532	533	534	535	536	537	538	539	540	541	542	543	544	545	546	547	548	549	550	551	552	553	554	555	556	557	558	559	560	561	562	563	564	565	566	567	568	569	570	571	572	573	574	575	576	577	578	579	580	581	582	583	584	585	586	587	588	589	590	591	592	593	594	595	596	597	598	599	600	601	602	603	604	605	606	607	608	609	610	611	612	613	614	615	616	617	618	619	620	621	622	623	624	625	626	627	628	629	630	631	632	633	634	635	636	637	638	639	640	641	642	643	644	645	646	647	648	649	650	651	652	653	654	655	656	657	658	659	660	661	662	663	664	665	666	667	668	669	670	671	672	673	674	675	676	677	678	679	680	681	682	683	684	685	686	687	688	689	690	691	692	693	694	695	696	697	698	699	700	701	702	703	704	705	706	707	708	709	710	711	712	713	714	715	716	717	718	719	720	721	722	723	724	725	726	727	728	729	730	731	732	733	734	735	736	737	738	739	740	741	742	743	744	745	746	747	748	749	750	751	752	753	754	755	756	757	758	759	760	761	762	763	764	765	766	767	768	769	770	771	772	773	774	775	776	777	778	779	780	781	782	783	784	785	786	787	788	789	790	791	792	793	794	795	796	797	798	799	800	801	802	803	804	805	806	807	808	809	810	811	812	813	814	815	816	817	818	819	820	821	822	823	824	825	826	827	828	829	830	831	832	833	834	835	836	837	838	839	840	841	842	843	844	845	846	847	848	849	850	851	852	853	854	855	856	857	858	859	860	861	862	863	864	865	866	867	868	869	870	871	872	873	874	875	876	877	878	879	880	881	882	883	884	885	886	887	888	889	890	891	892	893	894	895	896	897	898	899	900	901	902	903	904	905	906	907	908	909	910	911	912	913	914	915	</DataArray>
<DataArray type="Float32" Name="top" format="ascii">0	0	0	0	0	0	0	0	0	0	0	0	0	0	0	0	0	0	0	0	0	0	0	0	0	0	0	0	0	0	0	0	0	0	0	0	0	0	0	0	0	0	0	0	0	0	0	0	0	0	0	0	0	0	0	0	0	0	0	0	0	0	0	0	0	0	0	0	0	0	0	0	0	0	0	0	0	0	0	0	0	0	0	0	0	0	0	0	0	0	0	0	0	0	0	0	0	0	0	0	0	0	0	0	0	0	0	0	0	0	0	0	0	0	0	0	0	0	0	0	0	0	0	0	0	0	0	0	0	0	0	0	0	0	0	0	0	0	0	0	0	0	0	0	0	0	0	0	0	0	0	0	0	0	0	0	0	0	0	0	0	0	0	0	0	0	0	0	0	0	0	0	0	0	0	0	0	0	0	0	0	0	0	0	0	0	0	0	0	0	0	0	0	0	0	0	0	0	0	0	0	0	0	0	0	0	0	0	0	0	0	0	0	0	0	0	0	0	0	0	0	0	0	0	0	0	0	0	0	0	0	0	0	0	0	0	0	0	0	0	0	0	0	0	0	0	0	0	0	0	0	0	0	0	0	0	0	0	0	0	0	0	0	0	0	0	0	0	0	0	0	0	0	0	0	0	0	0	0	0	0	0	0	0	0	0	0	0	0	0	0	0	0	0	0	0	0	0	0	0	0	0	0	0	0	0	0	0	0	0	0	0	0	0	0	0	0	0	0	0	0	0	0	0	0	0	0	0	0	0	0	0	0	0	0	0	0	0	0	0	0	0	0	0	0	0	0	0	0	0	0	0	0	0	0	0	0	0	0	0	0	0	0	0	0	0	0	0	0	0	0	0	0	0	0	0	0	0	0	0	0	0	0	0	0	0	0	0	0	0	0	0	0	0	0	0	0	0	0	0	0	0	0	0	0	0	0	0	0	0	0	0	0	0	0	0	0	0	0	0	0	0	0	0	0	0	0	0	0	0	0	0	0	0	0	0	0	0	0	0	0	0	0	0	0	0	0	0	0	0	0	0	0	0	0	0	0	0	0	0	0	0	0	0	0	0	0	0	0	0	0	0	0	0	0	0	0	0	0	0	0	0	0	0	0	0	0	0	0	0	0	0	0	0	0	0	0	0	0	0	0	0	0	0	0	0	0	0	0	0	0	0	0	0	0	0	0	0	0	0	0	0	0	-10	-10	-10	-10	-10	-10	-10	-10	-10	-10	-10	-10	-10	-10	-10	-10	-10	-10	-10	-10	-10	-10	-10	-10	-10	-10	-10	-10	-10	-10	-10	-10	-10	-10	-10	-10	-10	-10	-10	-10	-10	-10	-10	-10	-10	-10	-10	-10	-10	-10	-10	-10	-10	-10	-10	-10	-10	-10	-10	-10	-10	-10	-10	-10	-10	-10	-10	-10	-10	-10	-10	-10	-10	-10	-10	-10	-10	-10	-10	-10	-10	-10	-10	-10	-10	-10	-10	-10	-10	-10	-10	-10	-10	-10	-10	-10	-10	-10	-10	-10	-10	-10	-10	-10	-10	-10	-10	-10	-10	-10	-10	-10	-10	-10	-10	-10	-10	-10	-10	-10	-10	-10	-10	-10	-10	-10	-10	-10	-10	-10	-10	-10	-10	-10	-10	-10	-10	-10	-10	-10	-10	-10	-10	-10	-10	-10	-10	-10	-10	-10	-10	-10	-10	-10	-10	-10	-10	-10	-10	-10	-10	-10	-10	-10	-10	-10	-10	-10	-10	-10	-10	-10	-10	-10	-10	-10	-10	-10	-10	-10	-10	-10	-10	-10	-10	-10	-10	-10	-10	-10	-10	-10	-10	-10	-10	-10	-10	-10	-10	-10	-10	-10	-10	-10	-10	-10	-10	-10	-10	-10	-10	-10	-10	-10	-10	-10	-10	-10	-10	-10	-10	-10	-10	-40	-40	-40	-40	-40	-40	-40	-40	-40	-40	-40	-40	-40	-40	-40	-40	-40	-40	-40	-40	-40	-40	-40	-40	-40	-40	-40	-40	-40	-40	-40	-40	-40	-40	-40	-40	-40	-40	-40	-40	-40	-40	-40	-40	-40	-40	-40	-40	-40	-40	-40	-40	-40	-40	-40	-40	-40	-40	-40	-40	-40	-40	-40	-40	-40	-40	-40	-40	-40	-40	-40	-40	-40	-40	-40	-40	-40	-40	-40	-40	-40	-40	-40	-40	-40	-40	-40	-40	-40	-40	-40	-40	-40	-40	-40	-40	-40	-40	-40	-40	-40	-40	-40	-40	-40	-40	-70	-70	-70	-70	-70	-70	-70	-70	-70	-70	-70	-70	-70	-70	-70	-70	-70	-70	-70	-70	-70	-70	-70	-70	-70	-70	-70	-70	-70	-70	-70	-70	-70	-70	-70	-70	-70	-70	-70	-70	-70	-70	-70	-70	-70	-70	-70	-70	-70	-70	-70	-70	-70	-70	-70	-70	-70	-70	-70	-70	-70	-70	-70	-70	</DataArray>