<?xml version="1.0"?>
<VTKFile type="UnstructuredGrid" version="0.1" byte_order="BigEndian">
<UnstructuredGrid GhostLevel="0">
<Piece NumberOfPoints="2065" NumberOfCells="1444" ><Points>
<DataArray type="Float32" NumberOfComponents="3" format="ascii">
1503.3	1903.5	0	1503.3	1803.5	0	1603.3	1903.5	0	1603.3	1803.5	0	1503.3	1903.5	-10	1503.3	1803.5	-10	1603.3	1903.5	-10	1603.3	1803.5	-10	1703.3	1903.5	0	1703.3	1803.5	0	1703.3	1903.5	-10	1703.3	1803.5	-10	1803.3	1903.5	0	1803.3	1803.5	0	1803.3	1903.5	-10	1803.3	1803.5	-10	1903.3	1903.5	0	1903.3	1803.5	0	1903.3	1903.5	-10	1903.3	1803.5	-10	1503.3	1703.5	0	1603.3	1703.5	0	1503.3	1703.5	-10	1603.3	1703.5	-10	1703.3	1703.5	0	1703.3	1703.5	-10	1803.3	1703.5	0	1803.3	1703.5	-10	1903.3	1703.5	0	1903.3	1703.5	-10	1503.3	1603.5	0	1603.3	1603.5	0	1503.3	1603.5	-10	1603.3	1603.5	-10	1703.3	1603.5	0	1703.3	1603.5	-10	1803.3	1603.5	0	1803.3	1603.5	-10	1903.3	1603.5	0	1903.3	1603.5	-10	1103.3	1603.5	0	1103.3	1503.5	0	1203.3	1603.5	0	1203.3	1503.5	0	1103.3	1603.5	-10	1103.3	1503.5	-10	1203.3	1603.5	-10	1203.3	1503.5	-10	1303.3	1603.5	0	1303.3	1503.5	0	1303.3	1603.5	-10	1303.3	1503.5	-10	1403.3	1603.5	0	1403.3	1503.5	0	1403.3	1603.5	-10	1403.3	1503.5	-10	1503.3	1503.5	0	1503.3	1503.5	-10	1603.3	1503.5	0	1603.3	1503.5	-10	1703.3	1503.5	0	1703.3	1503.5	-10	1803.3	1503.5	0	1803.3	1503.5	-10	1903.3	1503.5	0	1903.3	1503.5	-10	1103.3	1403.5	0	1203.3	1403.5	0	1103.3	1403.5	-10	1203.3	1403.5	-10	1303.3	1403.5	0	1303.3	1403.5	-10	1403.3	1403.5	0	1403.3	1403.5	-10	1503.3	1403.5	0	1503.3	1403.5	-10	1603.3	1403.5	0	1603.3	1403.5	-10	1703.3	1403.5	0	1703.3	1403.5	-10	1803.3	1403.5	0	1803.3	1403.5	-10	1903.3	1403.5	0	1903.3	1403.5	-10	1103.3	1303.5	0	1203.3	1303.5	0	1103.3	1303.5	-10	1203.3	1303.5	-10	1303.3	1303.5	0	1303.3	1303.5	-10	1403.3	1303.5	0	1403.3	1303.5	-10	1503.3	1303.5	0	1503.3	1303.5	-10	1603.3	1303.5	0	1603.3	1303.5	-10	1703.3	1303.5	0	1703.3	1303.5	-10	1803.3	1303.5	0	1803.3	1303.5	-10	1903.3	1303.5	0	1903.3	1303.5	-10	1103.3	1203.5	0	1203.3	1203.5	0	1103.3	1203.5	-10	1203.3	1203.5	-10	1303.3	1203.5	0	1303.3	1203.5	-10	1403.3	1203.5	0	1403.3	1203.5	-10	1503.3	1203.5	0	1503.3	1203.5	-10	1603.3	1203.5	0	1603.3	1203.5	-10	1703.3	1203.5	0	1703.3	1203.5	-10	1803.3	1203.5	0	1803.3	1203.5	-10	1903.3	1203.5	0	1903.3	1203.5	-10	1103.3	1103.5	0	1203.3	1103.5	0	1103.3	1103.5	-10	1203.3	1103.5	-10	1303.3	1103.5	0	1303.3	1103.5	-10	1403.3	1103.5	0	1403.3	1103.5	-10	1503.3	1103.5	0	1503.3	1103.5	-10	1603.3	1103.5	0	1603.3	1103.5	-10	1703.3	1103.5	0	1703.3	1103.5	-10	1803.3	1103.5	0	1803.3	1103.5	-10	1903.3	1103.5	0	1903.3	1103.5	-10	1503.3	1903.5	-40	1503.3	1803.5	-40	1603.3	1903.5	-40	1603.3	1803.5	-40	1703.3	1903.5	-40	1703.3	1803.5	-40	1803.3	1903.5	-40	1803.3	1803.5	-40	1903.3	1903.5	-40	1903.3	1803.5	-40	1503.3	1703.5	-40	1603.3	1703.5	-40	1703.3	1703.5	-40	1803.3	1703.5	-40	1903.3	1703.5	-40	1503.3	1603.5	-40	1603.3	1603.5	-40	1703.3	1603.5	-40	1803.3	1603.5	-40	1903.3	1603.5	-40	1103.3	1603.5	-40	1103.3	1503.5	-40	1203.3	1603.5	-40	1203.3	1503.5	-40	1303.3	1603.5	-40	1303.3	1503.5	-40	1403.3	1603.5	-40	1403.3	1503.5	-40	1503.3	1503.5	-40	1603.3	1503.5	-40	1703.3	1503.5	-40	1803.3	1503.5	-40	1903.3	1503.5	-40	1103.3	1403.5	-40	1203.3	1403.5	-40	1303.3	1403.5	-40	1403.3	1403.5	-40	1503.3	1403.5	-40	1603.3	1403.5	-40	1703.3	1403.5	-40	1803.3	1403.5	-40	1903.3	1403.5	-40	1103.3	1303.5	-40	1203.3	1303.5	-40	1303.3	1303.5	-40	1403.3	1303.5	-40	1503.3	1303.5	-40	1603.3	1303.5	-40	1703.3	1303.5	-40	1803.3	1303.5	-40	1903.3	1303.5	-40	1103.3	1203.5	-40	1203.3	1203.5	-40	1303.3	1203.5	-40	1403.3	1203.5	-40	1503.3	1203.5	-40	1603.3	1203.5	-40	1703.3	1203.5	-40	1803.3	1203.5	-40	1903.3	1203.5	-40	1103.3	1103.5	-40	1203.3	1103.5	-40	1303.3	1103.5	-40	1403.3	1103.5	-40	1503.3	1103.5	-40	1603.3	1103.5	-40	1703.3	1103.5	-40	1803.3	1103.5	-40	1903.3	1103.5	-40	1503.3	1903.5	-70	1503.3	1803.5	-70	1603.3	1903.5	-70	1603.3	1803.5	-70	1703.3	1903.5	-70	1703.3	1803.5	-70	1803.3	1903.5	-70	1803.3	1803.5	-70	1903.3	1903.5	-70	1903.3	1803.5	-70	1503.3	1703.5	-70	1603.3	1703.5	-70	1703.3	1703.5	-70	1803.3	1703.5	-70	1903.3	1703.5	-70	1503.3	1603.5	-70	1603.3	1603.5	-70	1703.3	1603.5	-70	1803.3	1603.5	-70	1903.3	1603.5	-70	1103.3	1603.5	-70	1103.3	1503.5	-70	1203.3	1603.5	-70	1203.3	1503.5	-70	1303.3	1603.5	-70	1303.3	1503.5	-70	1403.3	1603.5	-70	1403.3	1503.5	-70	1503.3	1503.5	-70	1603.3	1503.5	-70	1703.3	1503.5	-70	1803.3	1503.5	-70	1903.3	1503.5	-70	1103.3	1403.5	-70	1203.3	1403.5	-70	1303.3	1403.5	-70	1403.3	1403.5	-70	1503.3	1403.5	-70	1603.3	1403.5	-70	1703.3	1403.5	-70	1803.3	1403.5	-70	1903.3	1403.5	-70	1103.3	1303.5	-70	1203.3	1303.5	-70	1303.3	1303.5	-70	1403.3	1303.5	-70	1503.3	1303.5	-70	1603.3	1303.5	-70	1703.3	1303.5	-70	1803.3	1303.5	-70	1903.3	1303.5	-70	1103.3	1203.5	-70	1203.3	1203.5	-70	1303.3	1203.5	-70	1403.3	1203.5	-70	1503.3	1203.5	-70	1603.3	1203.5	-70	1703.3	1203.5	-70	1803.3	1203.5	-70	1903.3	1203.5	-70	1103.3	1103.5	-70	1203.3	1103.5	-70	1303.3	1103.5	-70	1403.3	1103.5	-70	1503.3	1103.5	-70	1603.3	1103.5	-70	1703.3	1103.5	-70	1803.3	1103.5	-70	1903.3	1103.5	-70	1503.3	1903.5	-100	1503.3	1803.5	-100	1603.3	1903.5	-100	1603.3	1803.5	-100	1703.3	1903.5	-100	1703.3	1803.5	-100	1803.3	1903.5	-100	1803.3	1803.5	-100	1903.3	1903.5	-100	1903.3	1803.5	-100	1503.3	1703.5	-100	1603.3	1703.5	-100	1703.3	1703.5	-100	1803.3	1703.5	-100	1903.3	1703.5	-100	1503.3	1603.5	-100	1603.3	1603.5	-100	1703.3	1603.5	-100	1803.3	1603.5	-100	1903.3	1603.5	-100	1103.3	1603.5	-100	1103.3	1503.5	-100	1203.3	1603.5	-100	1203.3	1503.5	-100	1303.3	1603.5	-100	1303.3	1503.5	-100	1403.3	1603.5	-100	1403.3	1503.5	-100	1503.3	1503.5	-100	1603.3	1503.5	-100	1703.3	1503.5	-100	1803.3	1503.5	-100	1903.3	1503.5	-100	1103.3	1403.5	-100	1203.3	1403.5	-100	1303.3	1403.5	-100	1403.3	1403.5	-100	1503.3	1403.5	-100	1603.3	1403.5	-100	1703.3	1403.5	-100	1803.3	1403.5	-100	1903.3	1403.5	-100	1103.3	1303.5	-100	1203.3	1303.5	-100	1303.3	1303.5	-100	1403.3	1303.5	-100	1503.3	1303.5	-100	1603.3	1303.5	-100	1703.3	1303.5	-100	1803.3	1303.5	-100	1903.3	1303.5	-100	1103.3	1203.5	-100	1203.3	1203.5	-100	1303.3	1203.5	-100	1403.3	1203.5	-100	1503.3	1203.5	-100	1603.3	1203.5	-100	1703.3	1203.5	-100	1803.3	1203.5	-100	1903.3	1203.5	-100	1103.3	1103.5	-100	1203.3	1103.5	-100	1303.3	1103.5	-100	1403.3	1103.5	-100	1503.3	1103.5	-100	1603.3	1103.5	-100	1703.3	1103.5	-100	1803.3	1103.5	-100	1903.3	1103.5	-100	1103.3	1903.5	0	1103.3	1853.5	0	1153.3	1903.5	0	1153.3	1853.5	0	1103.3	1903.5	-10	1103.3	1853.5	-10	1153.3	1903.5	-10	1153.3	1853.5	-10	1203.3	1903.5	0	1203.3	1853.5	0	1203.3	1903.5	-10	1203.3	1853.5	-10	1103.3	1828.5	0	1128.3	1853.5	-0	1128.3	1828.5	0	1103.3	1828.5	-10	1128.3	1853.5	-10	1128.3	1828.5	-10	1153.3	1828.5	0	1153.3	1828.5	-10	1103.3	1803.5	0	1128.3	1803.5	0	1103.3	1803.5	-10	1128.3	1803.5	-10	1153.3	1803.5	0	1153.3	1803.5	-10	1178.3	1853.5	-0	1178.3	1828.5	0	1178.3	1853.5	-10	1178.3	1828.5	-10	1203.3	1828.5	0	1203.3	1828.5	-10	1178.3	1803.5	0	1178.3	1803.5	-10	1203.3	1803.5	0	1203.3	1803.5	-10	1253.3	1903.5	0	1253.3	1853.5	0	1253.3	1903.5	-10	1253.3	1853.5	-10	1303.3	1903.5	0	1303.3	1853.5	0	1303.3	1903.5	-10	1303.3	1853.5	-10	1228.3	1853.5	0	1228.3	1828.5	0	1228.3	1853.5	-10	1228.3	1828.5	-10	1253.3	1828.5	0	1253.3	1828.5	-10	1228.3	1803.5	0	1228.3	1803.5	-10	1253.3	1803.5	0	1253.3	1803.5	-10	1278.3	1853.5	-0	1278.3	1828.5	0	1278.3	1853.5	-10	1278.3	1828.5	-10	1303.3	1828.5	0	1303.3	1828.5	-10	1278.3	1803.5	0	1278.3	1803.5	-10	1303.3	1803.5	0	1303.3	1803.5	-10	1353.3	1903.5	0	1353.3	1853.5	0	1353.3	1903.5	-10	1353.3	1853.5	-10	1403.3	1903.5	0	1403.3	1853.5	0	1403.3	1903.5	-10	1403.3	1853.5	-10	1328.3	1853.5	-0	1328.3	1828.5	0	1328.3	1853.5	-10	1328.3	1828.5	-10	1353.3	1828.5	0	1353.3	1828.5	-10	1328.3	1803.5	0	1328.3	1803.5	-10	1353.3	1803.5	0	1353.3	1803.5	-10	1378.3	1853.5	0	1378.3	1828.5	0	1378.3	1853.5	-10	1378.3	1828.5	-10	1403.3	1828.5	-0	1403.3	1828.5	-10	1378.3	1803.5	0	1378.3	1803.5	-10	1403.3	1803.5	0	1403.3	1803.5	-10	1453.3	1903.5	0	1453.3	1853.5	0	1453.3	1903.5	-10	1453.3	1853.5	-10	1503.3	1853.5	0	1503.3	1853.5	-10	1453.3	1803.5	0	1453.3	1803.5	-10	1103.3	1791	0	1115.8	1803.5	-0	1115.8	1791	0	1103.3	1791	-10	1115.8	1803.5	-10	1115.8	1791	-10	1128.3	1791	0	1128.3	1791	-10	1103.3	1778.5	0	1115.8	1778.5	0	1103.3	1778.5	-10	1115.8	1778.5	-10	1128.3	1778.5	0	1128.3	1778.5	-10	1140.8	1803.5	-0	1140.8	1791	0	1140.8	1803.5	-10	1140.8	1791	-10	1153.3	1791	0	1153.3	1791	-10	1140.8	1778.5	0	1140.8	1778.5	-10	1153.3	1778.5	0	1153.3	1778.5	-10	1103.3	1766	0	1115.8	1766	0	1103.3	1766	-10	1115.8	1766	-10	1128.3	1766	0	1128.3	1766	-10	1103.3	1753.5	0	1115.8	1753.5	0	1103.3	1753.5	-10	1115.8	1753.5	-10	1128.3	1753.5	0	1128.3	1753.5	-10	1140.8	1766	0	1140.8	1766	-10	1153.3	1766	0	1153.3	1766	-10	1140.8	1753.5	0	1140.8	1753.5	-10	1153.3	1753.5	0	1153.3	1753.5	-10	1165.8	1803.5	0	1165.8	1791	0	1165.8	1803.5	-10	1165.8	1791	-10	1178.3	1791	0	1178.3	1791	-10	1165.8	1778.5	0	1165.8	1778.5	-10	1178.3	1778.5	0	1178.3	1778.5	-10	1190.8	1803.5	-0	1190.8	1791	0	1190.8	1803.5	-10	1190.8	1791	-10	1203.3	1791	0	1203.3	1791	-10	1190.8	1778.5	0	1190.8	1778.5	-10	1203.3	1778.5	0	1203.3	1778.5	-10	1165.8	1766	0	1165.8	1766	-10	1178.3	1766	0	1178.3	1766	-10	1165.8	1753.5	0	1165.8	1753.5	-10	1178.3	1753.5	0	1178.3	1753.5	-10	1190.8	1766	0	1190.8	1766	-10	1203.3	1766	0	1203.3	1766	-10	1190.8	1753.5	0	1190.8	1753.5	-10	1203.3	1753.5	0	1203.3	1753.5	-10	1103.3	1741	0	1115.8	1741	0	1103.3	1741	-10	1115.8	1741	-10	1128.3	1741	0	1128.3	1741	-10	1103.3	1728.5	0	1115.8	1728.5	0	1103.3	1728.5	-10	1115.8	1728.5	-10	1128.3	1728.5	0	1128.3	1728.5	-10	1140.8	1741	0	1140.8	1741	-10	1153.3	1741	0	1153.3	1741	-10	1140.8	1728.5	0	1140.8	1728.5	-10	1153.3	1728.5	0	1153.3	1728.5	-10	1103.3	1716	0	1115.8	1716	0	1103.3	1716	-10	1115.8	1716	-10	1128.3	1716	0	1128.3	1716	-10	1103.3	1703.5	0	1115.8	1703.5	0	1103.3	1703.5	-10	1115.8	1703.5	-10	1128.3	1703.5	0	1128.3	1703.5	-10	1140.8	1716	0	1140.8	1716	-10	1153.3	1716	0	1153.3	1716	-10	1140.8	1703.5	0	1140.8	1703.5	-10	1153.
[...]
<CellData Scalars="scalars">
<DataArray type="Int32" Name="nodeid" format="ascii">257	258	265	266	268	267	261	262	264	263	269	270	277	278	280	279	273	274	276	275	281	282	289	290	292	291	285	286	288	287	293	294	296	295	5	6	7	8	305	306	308	307	309	310	312	311	317	318	320	319	313	314	316	315	325	326	328	327	329	330	332	331	337	338	340	339	333	334	336	335	365	366	368	367	369	370	372	371	377	378	380	379	373	374	376	375	345	346	348	347	349	350	352	351	357	358	360	359	353	354	356	355	389	390	392	391	393	394	396	395	401	402	404	403	397	398	400	399	409	410	412	411	413	414	416	415	421	422	424	423	417	418	420	419	449	450	452	451	453	454	456	455	461	462	464	463	457	458	460	459	429	430	432	431	433	434	436	435	441	442	444	443	437	438	440	439	473	474	476	475	477	478	480	479	485	486	488	487	481	482	484	483	493	494	496	495	497	498	500	499	505	506	508	507	501	502	504	503	533	534	536	535	537	538	540	539	545	546	548	547	541	542	544	543	513	514	516	515	517	518	520	519	525	526	528	527	521	522	524	523	553	554	556	555	550	552	557	558	560	559	13	14	15	16	569	570	572	571	573	574	576	575	568	567	581	582	584	583	585	586	588	587	580	579	564	563	597	598	600	599	601	602	604	603	596	595	609	610	612	611	613	614	616	615	608	607	592	591	625	626	628	627	629	630	632	631	624	623	637	638	640	639	641	642	644	643	636	635	620	619	649	650	652	651	646	648	647	21	22	23	24	25	26	27	28	29	30	31	32	33	34	35	36	37	38	39	40	41	42	43	44	45	46	47	48	49	50	51	52	53	54	55	56	57	58	59	60	61	62	63	64	653	654	661	662	664	663	657	658	660	659	665	666	673	674	676	675	669	670	672	671	677	678	685	686	688	687	681	682	684	683	689	690	692	691	69	70	71	72	701	702	704	703	705	706	708	707	713	714	716	715	709	710	712	711	721	722	724	723	725	726	728	727	733	734	736	735	729	730	732	731	761	762	764	763	765	766	768	767	773	774	776	775	769	770	772	771	741	742	744	743	745	746	748	747	753	754	756	755	749	750	752	751	785	786	788	787	789	790	792	791	797	798	800	799	793	794	796	795	805	806	808	807	809	810	812	811	817	818	820	819	813	814	816	815	845	846	848	847	849	850	852	851	857	858	860	859	853	854	856	855	825	826	828	827	829	830	832	831	837	838	840	839	833	834	836	835	869	870	872	871	873	874	876	875	881	882	884	883	877	878	880	879	889	890	892	891	893	894	896	895	901	902	904	903	897	898	900	899	929	930	932	931	933	934	936	935	941	942	944	943	937	938	940	939	909	910	912	911	913	914	916	915	921	922	924	923	917	918	920	919	949	950	952	951	946	948	953	954	956	955	77	78	79	80	965	966	968	967	969	970	972	971	964	963	977	978	980	979	981	982	984	983	976	975	960	959	993	994	996	995	997	998	1000	999	992	991	1005	1006	1008	1007	1009	1010	1012	1011	1004	1003	988	987	1021	1022	1024	1023	1025	1026	1028	1027	1020	1019	1033	1034	1036	1035	1037	1038	1040	1039	1032	1031	1016	1015	1045	1046	1048	1047	1042	1044	1043	85	86	87	88	89	90	91	92	93	94	95	96	97	98	99	100	101	102	103	104	105	106	107	108	109	110	111	112	113	114	115	116	117	118	119	120	121	122	123	124	125	126	127	128	1049	1050	1057	1058	1060	1059	1053	1054	1056	1055	1061	1062	1069	1070	1072	1071	1065	1066	1068	1067	1073	1074	1081	1082	1084	1083	1077	1078	1080	1079	1085	1086	1088	1087	133	134	135	136	1097	1098	1100	1099	1101	1102	1104	1103	1109	1110	1112	1111	1105	1106	1108	1107	1117	1118	1120	1119	1121	1122	1124	1123	1129	1130	1132	1131	1125	1126	1128	1127	1157	1158	1160	1159	1161	1162	1164	1163	1169	1170	1172	1171	1165	1166	1168	1167	1137	1138	1140	1139	1141	1142	1144	1143	1149	1150	1152	1151	1145	1146	1148	1147	1181	1182	1184	1183	1185	1186	1188	1187	1193	1194	1196	1195	1189	1190	1192	1191	1201	1202	1204	1203	1205	1206	1208	1207	1213	1214	1216	1215	1209	1210	1212	1211	1241	1242	1244	1243	1245	1246	1248	1247	1253	1254	1256	1255	1249	1250	1252	1251	1221	1222	1224	1223	1225	1226	1228	1227	1233	1234	1236	1235	1229	1230	1232	1231	1265	1266	1268	1267	1269	1270	1272	1271	1277	1278	1280	1279	1273	1274	1276	1275	1285	1286	1288	1287	1289	1290	1292	1291	1297	1298	1300	1299	1293	1294	1296	1295	1325	1326	1328	1327	1329	1330	1332	1331	1337	1338	1340	1339	1333	1334	1336	1335	1305	1306	1308	1307	1309	1310	1312	1311	1317	1318	1320	1319	1313	1314	1316	1315	1345	1346	1348	1347	1342	1344	1349	1350	1352	1351	141	142	143	144	1361	1362	1364	1363	1365	1366	1368	1367	1360	1359	1373	1374	1376	1375	1377	1378	1380	1379	1372	1371	1356	1355	1389	1390	1392	1391	1393	1394	1396	1395	1388	1387	1401	1402	1404	1403	1405	1406	1408	1407	1400	1399	1384	1383	1417	1418	1420	1419	1421	1422	1424	1423	1416	1415	1429	1430	1432	1431	1433	1434	1436	1435	1428	1427	1412	1411	1441	1442	1444	1443	1438	1440	1439	149	150	151	152	153	154	155	156	157	158	159	160	161	162	163	164	165	166	167	168	169	170	171	172	173	174	175	176	177	178	179	180	181	182	183	184	185	186	187	188	189	190	191	192	1445	1446	1453	1454	1456	1455	1449	1450	1452	1451	1457	1458	1465	1466	1468	1467	1461	1462	1464	1463	1469	1470	1477	1478	1480	1479	1473	1474	1476	1475	1481	1482	1484	1483	197	198	199	200	1493	1494	1496	1495	1497	1498	1500	1499	1505	1506	1508	1507	1501	1502	1504	1503	1513	1514	1516	1515	1517	1518	1520	1519	1525	1526	1528	1527	1521	1522	1524	1523	1553	1554	1556	1555	1557	1558	1560	1559	1565	1566	1568	1567	1561	1562	1564	1563	1533	1534	1536	1535	1537	1538	1540	1539	1545	1546	1548	1547	1541	1542	1544	1543	1577	1578	1580	1579	1581	1582	1584	1583	1589	1590	1592	1591	1585	1586	1588	1587	1597	1598	1600	1599	1601	1602	1604	1603	1609	1610	1612	1611	1605	1606	1608	1607	1637	1638	1640	1639	1641	1642	1644	1643	1649	1650	1652	1651	1645	1646	1648	1647	1617	1618	1620	1619	1621	1622	1624	1623	1629	1630	1632	1631	1625	1626	1628	1627	1661	1662	1664	1663	1665	1666	1668	1667	1673	1674	1676	1675	1669	1670	1672	1671	1681	1682	1684	1683	1685	1686	1688	1687	1693	1694	1696	1695	1689	1690	1692	1691	1721	1722	1724	1723	1725	1726	1728	1727	1733	1734	1736	1735	1729	1730	1732	1731	1701	1702	1704	1703	1705	1706	1708	1707	1713	1714	1716	1715	1709	1710	1712	1711	1741	1742	1744	1743	1738	1740	1745	1746	1748	1747	205	206	207	208	1757	1758	1760	1759	1761	1762	1764	1763	1756	1755	1769	1770	1772	1771	1773	1774	1776	1775	1768	1767	1752	1751	1785	1786	1788	1787	1789	1790	1792	1791	1784	1783	1797	1798	1800	1799	1801	1802	1804	1803	1796	1795	1780	1779	1813	1814	1816	1815	1817	1818	1820	1819	1812	1811	1825	1826	1828	1827	1829	1830	1832	1831	1824	1823	1808	1807	1837	1838	1840	1839	1834	1836	1835	213	214	215	216	217	218	219	220	221	222	223	224	225	226	227	228	229	230	231	232	233	234	235	236	237	238	239	240	241	242	243	244	245	246	247	248	249	250	251	252	253	254	255	256	</DataArray>
<DataArray type="Int32" Name="nodenumber" format="ascii">1	2	7	8	10	9	3	4	6	5	11	12	17	18	20	19	13	14	16	15	21	22	27	28	30	29	23	24	26	25	31	32	34	33	35	36	37	38	39	40	42	41	43	44	46	45	51	52	54	53	47	48	50	49	55	56	58	57	59	60	62	61	67	68	70	69	63	64	66	65	87	88	90	89	91	92	94	93	99	100	102	101	95	96	98	97	71	72	74	73	75	76	78	77	83	84	86	85	79	80	82	81	103	104	106	105	107	108	110	109	115	116	118	117	111	112	114	113	119	120	122	121	123	124	126	125	131	132	134	133	127	128	130	129	151	152	154	153	155	156	158	157	163	164	166	165	159	160	162	161	135	136	138	137	139	140	142	141	147	148	150	149	143	144	146	145	167	168	170	169	171	172	174	173	179	180	182	181	175	176	178	177	183	184	186	185	187	188	190	189	195	196	198	197	191	192	194	193	215	216	218	217	219	220	222	221	227	228	230	229	223	224	226	225	199	200	202	201	203	204	206	205	211	212	214	213	207	208	210	209	231	232	234	233	235	240	236	237	239	238	241	242	243	244	245	246	248	247	249	250	252	251	254	253	255	256	258	257	259	260	262	261	264	263	266	265	267	268	270	269	271	272	274	273	276	275	277	278	280	279	281	282	284	283	286	285	288	287	289	290	292	291	293	294	296	295	298	297	299	300	302	301	303	304	306	305	308	307	310	309	311	312	314	313	315	317	316	318	319	320	321	322	323	324	325	326	327	328	329	330	331	332	333	334	335	336	337	338	339	340	341	342	343	344	345	346	347	348	349	350	351	352	353	354	355	356	357	358	359	360	361	362	363	368	369	371	370	364	365	367	366	372	373	378	379	381	380	374	375	377	376	382	383	388	389	391	390	384	385	387	386	392	393	395	394	396	397	398	399	400	401	403	402	404	405	407	406	412	413	415	414	408	409	411	410	416	417	419	418	420	421	423	422	428	429	431	430	424	425	427	426	448	449	451	450	452	453	455	454	460	461	463	462	456	457	459	458	432	433	435	434	436	437	439	438	444	445	447	446	440	441	443	442	464	465	467	466	468	469	471	470	476	477	479	478	472	473	475	474	480	481	483	482	484	485	487	486	492	493	495	494	488	489	491	490	512	513	515	514	516	517	519	518	524	525	527	526	520	521	523	522	496	497	499	498	500	501	503	502	508	509	511	510	504	505	507	506	528	529	531	530	532	533	535	534	540	541	543	542	536	537	539	538	544	545	547	546	548	549	551	550	556	557	559	558	552	553	555	554	576	577	579	578	580	581	583	582	588	589	591	590	584	585	587	586	560	561	563	562	564	565	567	566	572	573	575	574	568	569	571	570	592	593	595	594	596	601	597	598	600	599	602	603	604	605	606	607	609	608	610	611	613	612	615	614	616	617	619	618	620	621	623	622	625	624	627	626	628	629	631	630	632	633	635	634	637	636	638	639	641	640	642	643	645	644	647	646	649	648	650	651	653	652	654	655	657	656	659	658	660	661	663	662	664	665	667	666	669	668	671	670	672	673	675	674	676	678	677	679	680	681	682	683	684	685	686	687	688	689	690	691	692	693	694	695	696	697	698	699	700	701	702	703	704	705	706	707	708	709	710	711	712	713	714	715	716	717	718	719	720	721	722	723	724	729	730	732	731	725	726	728	727	733	734	739	740	742	741	735	736	738	737	743	744	749	750	752	751	745	746	748	747	753	754	756	755	757	758	759	760	761	762	764	763	765	766	768	767	773	774	776	775	769	770	772	771	777	778	780	779	781	782	784	783	789	790	792	791	785	786	788	787	809	810	812	811	813	814	816	815	821	822	824	823	817	818	820	819	793	794	796	795	797	798	800	799	805	806	808	807	801	802	804	803	825	826	828	827	829	830	832	831	837	838	840	839	833	834	836	835	841	842	844	843	845	846	848	847	853	854	856	855	849	850	852	851	873	874	876	875	877	878	880	879	885	886	888	887	881	882	884	883	857	858	860	859	861	862	864	863	869	870	872	871	865	866	868	867	889	890	892	891	893	894	896	895	901	902	904	903	897	898	900	899	905	906	908	907	909	910	912	911	917	918	920	919	913	914	916	915	937	938	940	939	941	942	944	943	949	950	952	951	945	946	948	947	921	922	924	923	925	926	928	927	933	934	936	935	929	930	932	931	953	954	956	955	957	962	958	959	961	960	963	964	965	966	967	968	970	969	971	972	974	973	976	975	977	978	980	979	981	982	984	983	986	985	988	987	989	990	992	991	993	994	996	995	998	997	999	1000	1002	1001	1003	1004	1006	1005	1008	1007	1010	1009	1011	1012	1014	1013	1015	1016	1018	1017	1020	1019	1021	1022	1024	1023	1025	1026	1028	1027	1030	1029	1032	1031	1033	1034	1036	1035	1037	1039	1038	1040	1041	1042	1043	1044	1045	1046	1047	1048	1049	1050	1051	1052	1053	1054	1055	1056	1057	1058	1059	1060	1061	1062	1063	1064	1065	1066	1067	1068	1069	1070	1071	1072	1073	1074	1075	1076	1077	1078	1079	1080	1081	1082	1083	1084	1085	1090	1091	1093	1092	1086	1087	1089	1088	1094	1095	1100	1101	1103	1102	1096	1097	1099	1098	1104	1105	1110	1111	1113	1112	1106	1107	1109	1108	1114	1115	1117	1116	1118	1119	1120	1121	1122	1123	1125	1124	1126	1127	1129	1128	1134	1135	1137	1136	1130	1131	1133	1132	1138	1139	1141	1140	1142	1143	1145	1144	1150	1151	1153	1152	1146	1147	1149	1148	1170	1171	1173	1172	1174	1175	1177	1176	1182	1183	1185	1184	1178	1179	1181	1180	1154	1155	1157	1156	1158	1159	1161	1160	1166	1167	1169	1168	1162	1163	1165	1164	1186	1187	1189	1188	1190	1191	1193	1192	1198	1199	1201	1200	1194	1195	1197	1196	1202	1203	1205	1204	1206	1207	1209	1208	1214	1215	1217	1216	1210	1211	1213	1212	1234	1235	1237	1236	1238	1239	1241	1240	1246	1247	1249	1248	1242	1243	1245	1244	1218	1219	1221	1220	1222	1223	1225	1224	1230	1231	1233	1232	1226	1227	1229	1228	1250	1251	1253	1252	1254	1255	1257	1256	1262	1263	1265	1264	1258	1259	1261	1260	1266	1267	1269	1268	1270	1271	1273	1272	1278	1279	1281	1280	1274	1275	1277	1276	1298	1299	1301	1300	1302	1303	1305	1304	1310	1311	1313	1312	1306	1307	1309	1308	1282	1283	1285	1284	1286	1287	1289	1288	1294	1295	1297	1296	1290	1291	1293	1292	1314	1315	1317	1316	1318	1323	1319	1320	1322	1321	1324	1325	1326	1327	1328	1329	1331	1330	1332	1333	1335	1334	1337	1336	1338	1339	1341	1340	1342	1343	1345	1344	1347	1346	1349	1348	1350	1351	1353	1352	1354	1355	1357	1356	1359	1358	1360	1361	1363	1362	1364	1365	1367	1366	1369	1368	1371	1370	1372	1373	1375	1374	1376	1377	1379	1378	1381	1380	1382	1383	1385	1384	1386	1387	1389	1388	1391	1390	1393	1392	1394	1395	1397	1396	1398	1400	1399	1401	1402	1403	1404	1405	1406	1407	1408	1409	1410	1411	1412	1413	1414	1415	1416	1417	1418	1419	1420	1421	1422	1423	1424	1425	1426	1427	1428	1429	1430	1431	1432	1433	1434	1435	1436	1437	1438	1439	1440	1441	1442	1443	1444	</DataArray>
<DataArray type="Int32" Name="layer" format="ascii">1	1	1	1	1	1	1	1	1	1	1	1	1	1	1	1	1	1	1	1	1	1	1	1	1	1	1	1	1	1	1	1	1	1	1	1	1	1	1	1	1	1	1	1	1	1	1	1	1	1	1	1	1	1	1	1	1	1	1	1	1	1	1	1	1	1	1	1	1	1	1	1	1	1	1	1	1	1	1	1	1	1	1	1	1	1	1	1	1	1	1	1	1	1	1	1	1	1	1	1	1	1	1	1	1	1	1	1	1	1	1	1	1	1	1	1	1	1	1	1	1	1	1	1	1	1	1	1	1	1	1	1	1	1	1	1	1	1	1	1	1	1	1	1	1	1	1	1	1	1	1	1	1	1	1	1	1	1	1	1	1	1	1	1	1	1	1	1	1	1	1	1	1	1	1	1	1	1	1	1	1	1	1	1	1	1	1	1	1	1	1	1	1	1	1	1	1	1	1	1	1	1	1	1	1	1	1	1	1	1	1	1	1	1	1	1	1	1	1	1	1	1	1	1	1	1	1	1	1	1	1	1	1	1	1	1	1	1	1	1	1	1	1	1	1	1	1	1	1	1	1	1	1	1	1	1	1	1	1	1	1	1	1	1	1	1	1	1	1	1	1	1	1	1	1	1	1	1	1	1	1	1	1	1	1	1	1	1	1	1	1	1	1	1	1	1	1	1	1	1	1	1	1	1	1	1	1	1	1	1	1	1	1	1	1	1	1	1	1	1	1	1	1	1	1	1	1	1	1	1	1	1	1	1	1	1	1	1	1	1	1	1	1	1	1	1	1	1	1	1	1	1	1	1	1	1	1	1	1	1	1	2	2	2	2	2	2	2	2	2	2	2	2	2	2	2	2	2	2	2	2	2	2	2	2	2	2	2	2	2	2	2	2	2	2	2	2	2	2	2	2	2	2	2	2	2	2	2	2	2	2	2	2	2	2	2	2	2	2	2	2	2	2	2	2	2	2	2	2	2	2	2	2	2	2	2	2	2	2	2	2	2	2	2	2	2	2	2	2	2	2	2	2	2	2	2	2	2	2	2	2	2	2	2	2	2	2	2	2	2	2	2	2	2	2	2	2	2	2	2	2	2	2	2	2	2	2	2	2	2	2	2	2	2	2	2	2	2	2	2	2	2	2	2	2	2	2	2	2	2	2	2	2	2	2	2	2	2	2	2	2	2	2	2	2	2	2	2	2	2	2	2	2	2	2	2	2	2	2	2	2	2	2	2	2	2	2	2	2	2	2	2	2	2	2	2	2	2	2	2	2	2	2	2	2	2	2	2	2	2	2	2	2	2	2	2	2	2	2	2	2	2	2	2	2	2	2	2	2	2	2	2	2	2	2	2	2	2	2	2	2	2	2	2	2	2	2	2	2	2	2	2	2	2	2	2	2	2	2	2	2	2	2	2	2	2	2	2	2	2	2	2	2	2	2	2	2	2	2	2	2	2	2	2	2	2	2	2	2	2	2	2	2	2	2	2	2	2	2	2	2	2	2	2	2	2	2	2	2	2	2	2	2	2	2	2	2	2	2	2	2	2	2	2	2	2	2	2	2	2	2	2	2	2	2	2	2	2	2	2	2	2	2	2	2	2	2	2	2	2	2	2	2	2	2	2	2	2	2	2	2	2	3	3	3	3	3	3	3	3	3	3	3	3	3	3	3	3	3	3	3	3	3	3	3	3	3	3	3	3	3	3	3	3	3	3	3	3	3	3	3	3	3	3	3	3	3	3	3	3	3	3	3	3	3	3	3	3	3	3	3	3	3	3	3	3	3	3	3	3	3	3	3	3	3	3	3	3	3	3	3	3	3	3	3	3	3	3	3	3	3	3	3	3	3	3	3	3	3	3	3	3	3	3	3	3	3	3	3	3	3	3	3	3	3	3	3	3	3	3	3	3	3	3	3	3	3	3	3	3	3	3	3	3	3	3	3	3	3	3	3	3	3	3	3	3	3	3	3	3	3	3	3	3	3	3	3	3	3	3	3	3	3	3	3	3	3	3	3	3	3	3	3	3	3	3	3	3	3	3	3	3	3	3	3	3	3	3	3	3	3	3	3	3	3	3	3	3	3	3	3	3	3	3	3	3	3	3	3	3	3	3	3	3	3	3	3	3	3	3	3	3	3	3	3	3	3	3	3	3	3	3	3	3	3	3	3	3	3	3	3	3	3	3	3	3	3	3	3	3	3	3	3	3	3	3	3	3	3	3	3	3	3	3	3	3	3	3	3	3	3	3	3	3	3	3	3	3	3	3	3	3	3	3	3	3	3	3	3	3	3	3	3	3	3	3	3	3	3	3	3	3	3	3	3	3	3	3	3	3	3	3	3	3	3	3	3	3	3	3	3	3	3	3	3	3	3	3	3	3	3	3	3	3	3	3	3	3	3	3	3	3	3	3	3	3	3	3	3	3	3	3	3	3	3	3	3	3	3	3	3	3	3	4	4	4	4	4	4	4	4	4	4	4	4	4	4	4	4	4	4	4	4	4	4	4	4	4	4	4	4	4	4	4	4	4	4	4	4	4	4	4	4	4	4	4	4	4	4	4	4	4	4	4	4	4	4	4	4	4	4	4	4	4	4	4	4	4	4	4	4	4	4	4	4	4	4	4	4	4	4	4	4	4	4	4	4	4	4	4	4	4	4	4	4	4	4	4	4	4	4	4	4	4	4	4	4	4	4	4	4	4	4	4	4	4	4	4	4	4	4	4	4	4	4	4	4	4	4	4	4	4	4	4	4	4	4	4	4	4	4	4	4	4	4	4	4	4	4	4	4	4	4	4	4	4	4	4	4	4	4	4	4	4	4	4	4	4	4	4	4	4	4	4	4	4	4	4	4	4	4	4	4	4	4	4	4	4	4	4	4	4	4	4	4	4	4	4	4	4	4	4	4	4	4	4	4	4	4	4	4	4	4	4	4	4	4	4	4	4	4	4	4	4	4	4	4	4	4	4	4	4	4	4	4	4	4	4	4	4	4	4	4	4	4	4	4	4	4	4	4	4	4	4	4	4	4	4	4	4	4	4	4	4	4	4	4	4	4	4	4	4	4	4	4	4	4	4	4	4	4	4	4	4	4	4	4	4	4	4	4	4	4	4	4	4	4	4	4	4	4	4	4	4	4	4	4	4	4	4	4	4	4	4	4	4	4	4	4	4	4	4	4	4	4	4	4	4	4	4	4	4	4	4	4	4	4	4	4	4	4	4	4	4	4	4	4	4	4	4	4	4	4	4	4	4	4	4	4	4	4	4	4	4	</DataArray>
<DataArray type="Int32" Name="row" format="ascii">1	1	1	1	1	1	1	1	1	1	1	1	1	1	1	1	1	1	1	1	1	1	1	1	1	1	1	1	1	1	1	1	1	1	1	1	1	1	2	2	2	2	2	2	2	2	2	2	2	2	2	2	2	2	2	2	2	2	2	2	2	2	2	2	2	2	2	2	2	2	2	2	2	2	2	2	2	2	2	2	2	2	2	2	2	2	2	2	2	2	2	2	2	2	2	2	2	2	2	2	2	2	2	2	2	2	2	2	2	2	2	2	2	2	2	2	2	2	2	2	2	2	2	2	2	2	2	2	2	2	2	2	2	2	2	2	2	2	2	2	2	2	2	2	2	2	2	2	2	2	2	2	2	2	2	2	2	2	2	2	2	2	2	2	2	2	2	2	2	2	2	2	2	2	2	2	2	2	2	2	2	2	2	2	2	2	2	2	2	2	2	2	2	2	2	2	2	2	2	2	2	2	2	2	2	2	2	2	2	2	2	2	2	2	2	2	2	2	2	2	2	2	2	2	2	2	2	2	2	2	2	2	2	2	2	2	2	2	2	2	2	2	2	2	3	3	3	3	3	3	3	3	3	3	3	3	3	3	3	3	3	3	3	3	3	3	3	3	3	3	3	3	3	3	3	3	3	3	3	3	3	3	3	3	3	3	3	3	3	3	3	3	3	3	3	3	3	3	3	3	3	3	3	3	3	3	3	3	3	3	3	3	3	3	3	3	3	3	3	3	3	4	4	4	4	4	4	4	4	5	5	5	5	5	5	5	5	6	6	6	6	6	6	6	6	7	7	7	7	7	7	7	7	8	8	8	8	8	8	8	8	1	1	1	1	1	1	1	1	1	1	1	1	1	1	1	1	1	1	1	1	1	1	1	1	1	1	1	1	1	1	1	1	1	1	1	1	1	1	2	2	2	2	2	2	2	2	2	2	2	2	2	2	2	2	2	2	2	2	2	2	2	2	2	2	2	2	2	2	2	2	2	2	2	2	2	2	2	2	2	2	2	2	2	2	2	2	2	2	2	2	2	2	2	2	2	2	2	2	2	2	2	2	2	2	2	2	2	2	2	2	2	2	2	2	2	2	2	2	2	2	2	2	2	2	2	2	2	2	2	2	2	2	2	2	2	2	2	2	2	2	2	2	2	2	2	2	2	2	2	2	2	2	2	2	2	2	2	2	2	2	2	2	2	2	2	2	2	2	2	2	2	2	2	2	2	2	2	2	2	2	2	2	2	2	2	2	2	2	2	2	2	2	2	2	2	2	2	2	2	2	2	2	2	2	2	2	2	2	2	2	2	2	2	2	2	2	2	2	2	2	2	2	2	2	2	2	2	2	2	2	2	2	2	2	2	2	2	2	2	2	2	2	2	2	3	3	3	3	3	3	3	3	3	3	3	3	3	3	3	3	3	3	3	3	3	3	3	3	3	3	3	3	3	3	3	3	3	3	3	3	3	3	3	3	3	3	3	3	3	3	3	3	3	3	3	3	3	3	3	3	3	3	3	3	3	3	3	3	3	3	3	3	3	3	3	3	3	3	3	3	3	4	4	4	4	4	4	4	4	5	5	5	5	5	5	5	5	6	6	6	6	6	6	6	6	7	7	7	7	7	7	7	7	8	8	8	8	8	8	8	8	1	1	1	1	1	1	1	1	1	1	1	1	1	1	1	1	1	1	1	1	1	1	1	1	1	1	1	1	1	1	1	1	1	1	1	1	1	1	2	2	2	2	2	2	2	2	2	2	2	2	2	2	2	2	2	2	2	2	2	2	2	2	2	2	2	2	2	2	2	2	2	2	2	2	2	2	2	2	2	2	2	2	2	2	2	2	2	2	2	2	2	2	2	2	2	2	2	2	2	2	2	2	2	2	2	2	2	2	2	2	2	2	2	2	2	2	2	2	2	2	2	2	2	2	2	2	2	2	2	2	2	2	2	2	2	2	2	2	2	2	2	2	2	2	2	2	2	2	2	2	2	2	2	2	2	2	2	2	2	2	2	2	2	2	2	2	2	2	2	2	2	2	2	2	2	2	2	2	2	2	2	2	2	2	2	2	2	2	2	2	2	2	2	2	2	2	2	2	2	2	2	2	2	2	2	2	2	2	2	2	2	2	2	2	2	2	2	2	2	2	2	2	2	2	2	2	2	2	2	2	2	2	2	2	2	2	2	2	2	2	2	2	2	2	3	3	3	3	3	3	3	3	3	3	3	3	3	3	3	3	3	3	3	3	3	3	3	3	3	3	3	3	3	3	3	3	3	3	3	3	3	3	3	3	3	3	3	3	3	3	3	3	3	3	3	3	3	3	3	3	3	3	3	3	3	3	3	3	3	3	3	3	3	3	3	3	3	3	3	3	3	4	4	4	4	4	4	4	4	5	5	5	5	5	5	5	5	6	6	6	6	6	6	6	6	7	7	7	7	7	7	7	7	8	8	8	8	8	8	8	8	1	1	1	1	1	1	1	1	1	1	1	1	1	1	1	1	1	1	1	1	1	1	1	1	1	1	1	1	1	1	1	1	1	1	1	1	1	1	2	2	2	2	2	2	2	2	2	2	2	2	2	2	2	2	2	2	2	2	2	2	2	2	2	2	2	2	2	2	2	2	2	2	2	2	2	2	2	2	2	2	2	2	2	2	2	2	2	2	2	2	2	2	2	2	2	2	2	2	2	2	2	2	2	2	2	2	2	2	2	2	2	2	2	2	2	2	2	2	2	2	2	2	2	2	2	2	2	2	2	2	2	2	2	2	2	2	2	2	2	2	2	2	2	2	2	2	2	2	2	2	2	2	2	2	2	2	2	2	2	2	2	2	2	2	2	2	2	2	2	2	2	2	2	2	2	2	2	2	2	2	2	2	2	2	2	2	2	2	2	2	2	2	2	2	2	2	2	2	2	2	2	2	2	2	2	2	2	2	2	2	2	2	2	2	2	2	2	2	2	2	2	2	2	2	2	2	2	2	2	2	2	2	2	2	2	2	2	2	2	2	2	2	2	2	3	3	3	3	3	3	3	3	3	3	3	3	3	3	3	3	3	3	3	3	3	3	3	3	3	3	3	3	3	3	3	3	3	3	3	3	3	3	3	3	3	3	3	3	3	3	3	3	3	3	3	3	3	3	3	3	3	3	3	3	3	3	3	3	3	3	3	3	3	3	3	3	3	3	3	3	3	4	4	4	4	4	4	4	4	5	5	5	5	5	5	5	5	6	6	6	6	6	6	6	6	7	7	7	7	7	7	7	7	8	8	8	8	8	8	8	8	</DataArray>