<?xml version="1.0"?>
<VTKFile type="UnstructuredGrid" version="0.1" byte_order="BigEndian">
<UnstructuredGrid GhostLevel="0">
<Piece NumberOfPoints="26280" NumberOfCells="3285" ><Points>
<DataArray type="Float64" NumberOfComponents="3" format="ascii">
-67.8823	67.8823	-6	-67.8823	67.8823	-6.5	-61.8718	73.8927	-6	-61.8718	73.8927	-6.5	-57.6292	69.65	-6	-57.6292	69.65	-6.5	-63.6396	63.6396	-6	-63.6396	63.6396	-6.5	-61.8718	73.8927	-6	-61.8718	73.8927	-6.5	-55.8614	79.9031	-6	-55.8614	79.9031	-6.5	-51.6188	75.6604	-6	-51.6188	75.6604	-6.5	-57.6292	69.65	-6	-57.6292	69.65	-6.5	-55.8614	79.9031	-6	-55.8614	79.9031	-6.5	-49.851	85.9135	-6	-49.851	85.9135	-6.5	-45.6084	81.6708	-6	-45.6084	81.6708	-6.5	-51.6188	75.6604	-6	-51.6188	75.6604	-6.5	-49.851	85.9135	-6	-49.851	85.9135	-6.5	-43.8406	91.9239	-6	-43.8406	91.9239	-6.5	-39.598	87.6812	-6	-39.598	87.6812	-6.5	-45.6084	81.6708	-6	-45.6084	81.6708	-6.5	-43.8406	91.9239	-6	-43.8406	91.9239	-6.5	-37.8302	97.9343	-6	-37.8302	97.9343	-6.5	-33.5876	93.6916	-6	-33.5876	93.6916	-6.5	-39.598	87.6812	-6	-39.598	87.6812	-6.5	-37.8302	97.9343	-6	-37.8302	97.9343	-6.5	-31.8198	103.945	-6	-31.8198	103.945	-6.5	-27.5772	99.7021	-6	-27.5772	99.7021	-6.5	-33.5876	93.6916	-6	-33.5876	93.6916	-6.5	-31.8198	103.945	-6	-31.8198	103.945	-6.5	-25.8094	109.955	-6	-25.8094	109.955	-6.5	-21.5668	105.712	-6	-21.5668	105.712	-6.5	-27.5772	99.7021	-6	-27.5772	99.7021	-6.5	-25.8094	109.955	-6	-25.8094	109.955	-6.5	-19.799	115.966	-6	-19.799	115.966	-6.5	-15.5563	111.723	-6	-15.5563	111.723	-6.5	-21.5668	105.712	-6	-21.5668	105.712	-6.5	-19.799	115.966	-6	-19.799	115.966	-6.5	-13.7886	121.976	-6	-13.7886	121.976	-6.5	-9.54594	117.733	-6	-9.54594	117.733	-6.5	-15.5563	111.723	-6	-15.5563	111.723	-6.5	-13.7886	121.976	-6	-13.7886	121.976	-6.5	-7.77817	127.986	-6	-7.77817	127.986	-6.5	-3.53553	123.744	-6	-3.53553	123.744	-6.5	-9.54594	117.733	-6	-9.54594	117.733	-6.5	-7.77817	127.986	-6	-7.77817	127.986	-6.5	-1.76777	133.997	-6	-1.76777	133.997	-6.5	2.47488	129.754	-6	2.47488	129.754	-6.5	-3.53553	123.744	-6	-3.53553	123.744	-6.5	-1.76777	133.997	-6	-1.76777	133.997	-6.5	4.24264	140.007	-6	4.24264	140.007	-6.5	8.48528	135.765	-6	8.48528	135.765	-6.5	2.47488	129.754	-6	2.47488	129.754	-6.5	4.24264	140.007	-6	4.24264	140.007	-6.5	10.2531	146.018	-6	10.2531	146.018	-6.5	14.4957	141.775	-6	14.4957	141.775	-6.5	8.48528	135.765	-6	8.48528	135.765	-6.5	10.2531	146.018	-6	10.2531	146.018	-6.5	16.2635	152.028	-6	16.2635	152.028	-6.5	20.5061	147.785	-6	20.5061	147.785	-6.5	14.4957	141.775	-6	14.4957	141.775	-6.5	16.2635	152.028	-6	16.2635	152.028	-6.5	22.2739	158.038	-6	22.2739	158.038	-6.5	26.5165	153.796	-6	26.5165	153.796	-6.5	20.5061	147.785	-6	20.5061	147.785	-6.5	22.2739	158.038	-6	22.2739	158.038	-6.5	28.2843	164.049	-6	28.2843	164.049	-6.5	32.5269	159.806	-6	32.5269	159.806	-6.5	26.5165	153.796	-6	26.5165	153.796	-6.5	28.2843	164.049	-6	28.2843	164.049	-6.5	34.2947	170.059	-6	34.2947	170.059	-6.5	38.5373	165.817	-6	38.5373	165.817	-6.5	32.5269	159.806	-6	32.5269	159.806	-6.5	34.2947	170.059	-6	34.2947	170.059	-6.5	40.3051	176.07	-6	40.3051	176.07	-6.5	44.5477	171.827	-6	44.5477	171.827	-6.5	38.5373	165.817	-6	38.5373	165.817	-6.5	40.3051	176.07	-6	40.3051	176.07	-6.5	46.3155	182.08	-6	46.3155	182.08	-6.5	50.5581	177.837	-6	50.5581	177.837	-6.5	44.5477	171.827	-6	44.5477	171.827	-6.5	46.3155	182.08	-6	46.3155	182.08	-6.5	52.3259	188.09	-6	52.3259	188.09	-6.5	56.5685	183.848	-6	56.5685	183.848	-6.5	50.5581	177.837	-6	50.5581	177.837	-6.5	52.3259	188.09	-6	52.3259	188.09	-6.5	58.3363	194.101	-6	58.3363	194.101	-6.5	62.579	189.858	-6	62.579	189.858	-6.5	56.5685	183.848	-6	56.5685	183.848	-6.5	58.3363	194.101	-6	58.3363	194.101	-6.5	64.3467	200.111	-6	64.3467	200.111	-6.5	68.5894	195.869	-6	68.5894	195.869	-6.5	62.579	189.858	-6	62.579	189.858	-6.5	64.3467	200.111	-6	64.3467	200.111	-6.5	70.3571	206.122	-6	70.3571	206.122	-6.5	74.5998	201.879	-6	74.5998	201.879	-6.5	68.5894	195.869	-6	68.5894	195.869	-6.5	70.3571	206.122	-6	70.3571	206.122	-6.5	76.3675	212.132	-6	76.3675	212.132	-6.5	80.6102	207.889	-6	80.6102	207.889	-6.5	74.5998	201.879	-6	74.5998	201.879	-6.5	-63.6396	63.6396	-6	-63.6396	63.6396	-6.5	-57.6292	69.65	-6	-57.6292	69.65	-6.5	-53.3866	65.4074	-6	-53.3866	65.4074	-6.5	-59.397	59.397	-6	-59.397	59.397	-6.5	-57.6292	69.65	-6	-57.6292	69.65	-6.5	-51.6188	75.6604	-6	-51.6188	75.6604	-6.5	-47.3762	71.4178	-6	-47.3762	71.4178	-6.5	-53.3866	65.4074	-6	-53.3866	65.4074	-6.5	-51.6188	75.6604	-6	-51.6188	75.6604	-6.5	-45.6084	81.6708	-6	-45.6084	81.6708	-6.5	-41.3657	77.4282	-6	-41.3657	77.4282	-6.5	-47.3762	71.4178	-6	-47.3762	71.4178	-6.5	-45.6084	81.6708	-6	-45.6084	81.6708	-6.5	-39.598	87.6812	-6	-39.598	87.6812	-6.5	-35.3553	83.4386	-6	-35.3553	83.4386	-6.5	-41.3657	77.4282	-6	-41.3657	77.4282	-6.5	-39.598	87.6812	-6	-39.598	87.6812	-6.5	-33.5876	93.6916	-6	-33.5876	93.6916	-6.5	-29.3449	89.449	-6	-29.3449	89.449	-6.5	-35.3553	83.4386	-6	-35.3553	83.4386	-6.5	-33.5876	93.6916	-6	-33.5876	93.6916	-6.5	-27.5772	99.7021	-6	-27.5772	99.7021	-6.5	-23.3345	95.4594	-6	-23.3345	95.4594	-6.5	-29.3449	89.449	-6	-29.3449	89.449	-6.5	-27.5772	99.7021	-6	-27.5772	99.7021	-6.5	-21.5668	105.712	-6	-21.5668	105.712	-6.5	-17.3241	101.47	-6	-17.3241	101.47	-6.5	-23.3345	95.4594	-6	-23.3345	95.4594	-6.5	-21.5668	105.712	-6	-21.5668	105.712	-6.5	-15.5563	111.723	-6	-15.5563	111.723	-6.5	-11.3137	107.48	-6	-11.3137	107.48	-6.5	-17.3241	101.47	-6	-17.3241	101.47	-6.5	-15.5563	111.723	-6	-15.5563	111.723	-6.5	-9.54594	117.733	-6	-9.54594	117.733	-6.5	-5.3033	113.491	-6	-5.3033	113.491	-6.5	-11.3137	107.48	-6	-11.3137	107.48	-6.5	-9.54594	117.733	-6	-9.54594	117.733	-6.5	-3.53553	123.744	-6	-3.53553	123.744	-6.5	0.707108	119.501	-6	0.707108	119.501	-6.5	-5.3033	113.491	-6	-5.3033	113.491	-6.5	-3.53553	123.744	-6	-3.53553	123.744	-6.5	2.47488	129.754	-6	2.47488	129.754	-6.5	6.71752	125.511	-6	6.71752	125.511	-6.5	0.707108	119.501	-6	0.707108	119.501	-6.5	2.47488	129.754	-6	2.47488	129.754	-6.5	8.48528	135.765	-6	8.48528	135.765	-6.5	12.7279	131.522	-6	12.7279	131.522	-6.5	6.71752	125.511	-6	6.71752	125.511	-6.5	8.48528	135.765	-6	8.48528	135.765	-6.5	14.4957	141.775	-6	14.4957	141.775	-6.5	18.7383	137.532	-6	18.7383	137.532	-6.5	12.7279	131.522	-6	12.7279	131.522	-6.5	14.4957	141.775	-6	14.4957	141.775	-6.5	20.5061	147.785	-6	20.5061	147.785	-6.5	24.7487	143.543	-6	24.7487	143.543	-6.5	18.7383	137.532	-6	18.7383	137.532	-6.5	20.5061	147.785	-6	20.5061	147.785	-6.5	26.5165	153.796	-6	26.5165	153.796	-6.5	30.7591	149.553	-6	30.7591	149.553	-6.5	24.7487	143.543	-6	24.7487	143.543	-6.5	26.5165	153.796	-6	26.5165	153.796	-6.5	32.5269	159.806	-6	32.5269	159.806	-6.5	36.7696	155.563	-6	36.7696	155.563	-6.5	30.7591	149.553	-6	30.7591	149.553	-6.5	32.5269	159.806	-6	32.5269	159.806	-6.5	38.5373	165.817	-6	38.5373	165.817	-6.5	42.78	161.574	-6	42.78	161.574	-6.5	36.7696	155.563	-6	36.7696	155.563	-6.5	38.5373	165.817	-6	38.5373	165.817	-6.5	44.5477	171.827	-6	44.5477	171.827	-6.5	48.7904	167.584	-6	48.7904	167.584	-6.5	42.78	161.574	-6	42.78	161.574	-6.5	44.5477	171.827	-6	44.5477	171.827	-6.5	50.5581	177.837	-6	50.5581	177.837	-6.5	54.8008	173.595	-6	54.8008	173.595	-6.5	48.7904	167.584	-6	48.7904	167.584	-6.5	50.5581	177.837	-6	50.5581	177.837	-6.5	56.5685	183.848	-6	56.5685	183.848	-6.5	60.8112	179.605	-6	60.8112	179.605	-6.5	54.8008	173.595	-6	54.8008	173.595	-6.5	56.5685	183.848	-6	56.5685	183.848	-6.5	62.579	189.858	-6	62.579	189.858	-6.5	66.8216	185.616	-6	66.8216	185.616	-6.5	60.8112	179.605	-6	60.8112	179.605	-6.5	62.579	189.858	-6	62.579	189.858	-6.5	68.5894	195.869	-6	68.5894	195.869	-6.5	72.832	191.626	-6	72.832	191.626	-6.5	66.8216	185.616	-6	66.8216	185.616	-6.5	68.5894	195.869	-6	68.5894	195.869	-6.5	74.5998	201.879	-6	74.5998	201.879	-6.5	78.8424	197.636	-6	78.8424	197.636	-6.5	72.832	191.626	-6	72.832	191.626	-6.5	74.5998	201.879	-6	74.5998	201.879	-6.5	80.6102	207.889	-6	80.6102	207.889	-6.5	84.8528	203.647	-6	84.8528	203.647	-6.5	78.8424	197.636	-6	78.8424	197.636	-6.5	-59.397	59.397	-6	-59.397	59.397	-6.5	-53.3866	65.4074	-6	-53.3866	65.4074	-6.5	-49.1439	61.1647	-6	-49.1439	61.1647	-6.5	-55.1543	55.1543	-6	-55.1543	55.1543	-6.5	-53.3866	65.4074	-6	-53.3866	65.4074	-6.5	-47.3762	71.4178	-6	-47.3762	71.4178	-6.5	-43.1335	67.1751	-6	-43.1335	67.1751	-6.5	-49.1439	61.1647	-6	-49.1439	61.1647	-6.5	-47.3762	71.4178	-6	-47.3762	71.4178	-6.5	-41.3657	77.4282	-6	-41.3657	77.4282	-6.5	-37.1231	73.1856	-6	-37.1231	73.1856	-6.5	-43.1335	67.1751	-6	-43.1335	67.1751	-6.5	-41.3657	77.4282	-6	-41.3657	77.4282	-6.5	-35.3553	83.4386	-6	-35.3553	83.4386	-6.5	-31.1127	79.196	-6	-31.1127	79.196	-6.5	-37.1231	73.1856	-6	-37.1231	73.1856	-6.5	-35.3553	83.4386	-6	-35.3553	83.4386	-6.5	-29.3449	89.449	-6	-29.3449	89.449	-6.5	-25.1023	85.2064	-6	-25.1023	85.2064	-6.5	-31.1127	79.196	-6	-31.1127	79.196	-6.5	-29.3449	89.449	-6	-29.3449	89.449	-6.5	-23.3345	95.4594	-6	-23.3345	95.4594	-6.5	-19.0919	91.2168	-6	-19.0919	91.2168	-6.5	-25.1023	85.2064	-6	-25.1023	85.2064	-6.5	-23.3345	95.4594	-6	-23.3345	95.4594	-6.5	-17.3241	101.47	-6	-17.3241	101.47	-6.5	-13.0815	97.2272	-6	-13.0815	97.2272	-6.5	-19.0919	91.2168	-6	-19.0919	91.2168	-6.5	-17.3241	101.47	-6	-17.3241	101.47	-6.5	-11.3137	107.48	-6	-11.3137	107.48	-6.5	-7.07107	103.238	-6	-7.07107	103.238	-6.5	-13.0815	97.2272	-6	-13.0815	97.2272	-6.5	-11.3137	107.48	-6	-11.3137	107.48	-6.5	-5.3033	113.491	-6	-5.3033	113.491	-6.5	-1.06066	109.248	-6	-1.06066	109.248	-6.5	-7.07107	103.238	-6	-7.07107	103.238	-6.5	-5.3033	113.491	-6	-5.3033	113.491	-6.5	0.707108	119.501	-6	0.707108	119.501	-6.5	4.94975	115.258	-6	4.94975	115.258	-6.5	-1.06066	109.248	-6	-1.06066	109.248	-6.5	0.707108	119.501	-6	0.707108	119.501	-6.5	6.71752	125.511	-6	6.71752	125.511	-6.5	10.9602	121.269	-6	10.9602	121.269	-6.5	4.94975	115.258	-6	4.94975	115.258	-6.5	6.71752	125.511	-6	6.71752	125.511	-6.5	12.7279	131.522	-6	12.7279	131.522	-6.5	16.9706	127.279	-6	16.9706	127.279	-6.5	10.9602	121.269	-6	10.9602	121.269	-6.5	12.
[...]
<CellData Scalars="scalars">
<DataArray type="Int32" Name="nodeid" format="ascii">1	2	3	4	5	6	7	8	9	10	11	12	13	14	15	16	17	18	19	20	21	22	23	24	25	26	27	28	29	30	31	32	33	34	35	36	37	38	39	40	41	42	43	44	45	46	47	48	49	50	51	52	53	54	55	56	57	58	59	60	61	62	63	64	65	66	67	68	69	70	71	72	73	74	75	76	77	78	79	80	81	82	83	84	85	86	87	88	89	90	91	92	93	94	95	96	97	98	99	100	101	102	103	104	105	106	107	108	109	110	111	112	113	114	115	116	117	118	119	120	121	122	123	124	125	126	127	128	129	130	131	132	133	134	135	136	137	138	139	140	141	142	143	144	145	146	147	148	149	150	151	152	153	154	155	156	1537	1538	1541	1542	1544	1543	1539	1545	1546	1553	1554	1556	1555	1549	1550	1552	1551	1557	1558	1560	1559	1561	1562	1564	1563	161	162	163	164	165	166	167	168	169	170	171	172	173	174	175	176	177	178	179	180	1565	1569	1573	1574	1577	1578	1580	1579	1575	1581	1582	1584	1583	1571	1585	1586	1588	1587	1567	1597	1598	1605	1606	1608	1607	1601	1602	1604	1603	1609	1610	1612	1611	1633	1634	1636	1635	1637	1638	1640	1639	1645	1646	1648	1647	1641	1642	1644	1643	1617	1618	1620	1619	1621	1622	1624	1623	1625	1626	1628	1627	1615	1653	1654	1656	1655	1650	1677	1678	1685	1686	1688	1687	1681	1682	1684	1683	1661	1662	1664	1663	1665	1666	1668	1667	1673	1674	1676	1675	1669	1670	1672	1671	1717	1718	1720	1719	1721	1722	1724	1723	1729	1730	1732	1731	1725	1726	1728	1727	1737	1738	1740	1739	1741	1742	1744	1743	1749	1750	1752	1751	1745	1746	1748	1747	1765	1766	1768	1767	1769	1770	1772	1771	1773	1774	1776	1775	1763	1753	1757	1758	1760	1759	1756	1755	1693	1694	1696	1695	1701	1702	1704	1703	1705	1706	1708	1707	1700	1699	1692	1691	1781	1782	1793	1794	1796	1795	1785	1786	1788	1789	1790	1792	1791	1797	1798	1800	1801	1802	1804	1803	1897	1898	1900	1899	1894	1905	1906	1908	1907	1901	1902	1904	1903	1909	1910	1917	1918	1920	1919	1913	1914	1916	1915	1945	1946	1948	1947	1949	1950	1952	1951	1957	1958	1960	1959	1953	1954	1956	1955	1925	1926	1928	1927	1929	1930	1932	1931	1937	1938	1940	1939	1933	1934	1936	1935	1813	1814	1816	1815	1817	1818	1820	1819	1825	1826	1828	1827	1821	1822	1824	1823	1833	1834	1836	1835	1837	1838	1840	1839	1845	1846	1848	1847	1841	1842	1844	1843	1873	1874	1876	1875	1877	1878	1880	1879	1885	1886	1888	1887	1881	1882	1884	1883	1853	1854	1856	1855	1857	1858	1860	1859	1865	1866	1868	1867	1861	1862	1864	1863	1965	1966	1968	1967	1962	2021	2022	2037	2038	2040	2041	2042	2044	2043	2025	2026	2033	2034	2036	2035	2029	2030	2032	2031	1973	1974	1976	1975	1977	1978	1980	1979	2005	2006	2008	2007	2009	2010	2012	2011	2017	2018	2020	2019	2013	2014	2016	2015	1985	1986	1988	1987	1989	1990	1992	1991	1997	1998	2000	1999	1993	1994	1996	1995	2045	2046	2061	2062	2064	2063	2049	2050	2057	2058	2060	2059	2053	2054	2056	2055	2065	2066	2068	2069	2070	2072	2071	187	188	189	190	191	192	193	194	195	196	197	198	199	200	201	202	203	204	2073	2074	2076	2075	2077	2081	2085	2086	2088	2087	2084	2083	2080	2079	2101	2102	2104	2103	2105	2106	2108	2107	2100	2099	2113	2114	2116	2115	2117	2118	2120	2119	2125	2126	2128	2127	2121	2122	2124	2123	2129	2133	2134	2136	2135	2132	2131	2095	2145	2146	2148	2147	2149	2150	2152	2151	2157	2158	2160	2159	2153	2154	2156	2155	2165	2166	2168	2167	2169	2170	2172	2171	2177	2178	2180	2179	2173	2174	2176	2175	2205	2206	2208	2207	2209	2210	2212	2211	2217	2218	2220	2219	2213	2214	2216	2215	2185	2186	2188	2187	2189	2190	2192	2191	2197	2198	2200	2199	2193	2194	2196	2195	2229	2230	2232	2231	2237	2238	2240	2239	2241	2242	2244	2243	2245	2246	2248	2247	2235	2249	2250	2252	2251	2227	2221	2222	2224	2223	2265	2266	2268	2267	2269	2270	2272	2271	2277	2278	2280	2279	2273	2274	2276	2275	2285	2286	2288	2287	2289	2290	2292	2291	2297	2298	2300	2299	2293	2294	2296	2295	2325	2326	2328	2327	2329	2330	2332	2331	2337	2338	2340	2339	2333	2334	2336	2335	2305	2306	2308	2307	2309	2310	2312	2311	2317	2318	2320	2319	2313	2314	2316	2315	2349	2350	2352	2351	2353	2354	2356	2355	2361	2362	2364	2363	2357	2358	2360	2359	2369	2370	2372	2371	2373	2374	2376	2375	2381	2382	2384	2383	2377	2378	2380	2379	2409	2410	2412	2411	2413	2414	2416	2415	2421	2422	2424	2423	2417	2418	2420	2419	2389	2390	2392	2391	2393	2394	2396	2395	2401	2402	2404	2403	2397	2398	2400	2399	2505	2506	2508	2507	2509	2510	2512	2511	2517	2518	2520	2519	2513	2514	2516	2515	2525	2526	2528	2527	2529	2530	2532	2531	2537	2538	2540	2539	2533	2534	2536	2535	2565	2566	2568	2567	2569	2570	2572	2571	2577	2578	2580	2579	2573	2574	2576	2575	2545	2546	2548	2547	2549	2550	2552	2551	2557	2558	2560	2559	2553	2554	2556	2555	2433	2434	2436	2435	2437	2438	2440	2439	2445	2446	2448	2447	2441	2442	2444	2443	2453	2454	2456	2455	2457	2458	2460	2459	2465	2466	2468	2467	2461	2462	2464	2463	2481	2482	2484	2483	2485	2486	2488	2487	2493	2494	2496	2495	2489	2490	2492	2491	2469	2473	2474	2476	2475	2472	2471	2593	2594	2596	2595	2597	2598	2600	2599	2605	2606	2608	2607	2601	2602	2604	2603	2613	2614	2616	2615	2610	2621	2622	2624	2623	2617	2618	2620	2619	2649	2650	2652	2651	2653	2654	2656	2655	2661	2662	2664	2663	2657	2658	2660	2659	2629	2630	2632	2631	2633	2634	2636	2635	2641	2642	2644	2643	2637	2638	2640	2639	2669	2670	2677	2678	2680	2679	2673	2674	2676	2675	2681	2682	2684	2683	2709	2710	2712	2711	2713	2714	2716	2715	2721	2722	2724	2723	2717	2718	2720	2719	2689	2690	2692	2691	2693	2694	2696	2695	2701	2702	2704	2703	2697	2698	2700	2699	2817	2818	2820	2819	2821	2822	2824	2823	2829	2830	2832	2831	2825	2826	2828	2827	2837	2838	2840	2839	2841	2842	2844	2843	2836	2845	2846	2848	2847	2873	2874	2876	2875	2870	2872	2871	2853	2854	2856	2855	2857	2858	2860	2859	2865	2866	2868	2867	2861	2862	2864	2863	2733	2734	2736	2735	2737	2738	2740	2739	2745	2746	2748	2747	2741	2742	2744	2743	2753	2754	2756	2755	2757	2758	2760	2759	2765	2766	2768	2767	2761	2762	2764	2763	2793	2794	2796	2795	2797	2798	2800	2799	2805	2806	2808	2807	2801	2802	2804	2803	2773	2774	2776	2775	2777	2778	2780	2779	2785	2786	2788	2787	2781	2782	2784	2783	2885	2886	2888	2887	2882	2884	2893	2894	2896	2895	2890	2892	2897	2898	2900	2899	2878	2880	2905	2906	2908	2907	2902	2904	2903	211	212	213	214	215	216	217	218	219	220	221	222	223	224	225	226	227	228	229	230	2909	2913	2914	2916	2915	2912	2911	2921	2925	2929	2930	2932	2931	2928	2927	2924	2923	2941	2942	2944	2943	2945	2946	2948	2947	2949	2950	2952	2951	2939	2957	2958	2960	2959	2961	2962	2964	2963	2969	2970	2972	2971	2965	2966	2968	2967	2981	2982	2984	2983	2985	2986	2988	2987	2980	2979	2973	2974	2976	2975	2989	2990	2992	2991	2919	3005	3006	3008	3007	3009	3010	3012	3011	3017	3018	3020	3019	3013	3014	3016	3015	3025	3026	3028	3027	3029	3030	3032	3031	3037	3038	3040	3039	3033	3034	3036	3035	3065	3066	3068	3067	3069	3070	3072	3071	3064	3073	3074	3076	3075	3045	3046	3048	3047	3049	3050	3052	3051	3057	3058	3060	3059	3053	3054	3056	3055	3085	3086	3088	3087	3082	3084	3083	3078	3080	3089	3090	3092	3091	3109	3110	3112	3111	3097	3101	3102	3104	3103	3100	3099	3105	3106	3108	3107	3096	3095	3113	3114	3116	3115	235	236	237	238	239	240	241	242	243	244	245	246	247	248	249	250	251	252	253	254	255	3117	3118	3120	3119	3121	3122	3124	3123	258	259	260	261	262	263	264	265	266	267	268	269	270	271	272	273	274	275	276	277	278	279	280	281	282	283	284	285	286	287	288	289	290	291	292	293	294	295	296	297	298	299	300	301	302	303	304	305	306	307	308	309	310	311	312	313	314	315	316	317	318	319	320	321	322	323	324	325	326	327	328	329	330	331	332	333	334	335	336	337	338	339	340	341	342	343	344	345	346	347	348	349	350	351	352	353	354	355	356	357	358	359	360	361	362	363	364	365	366	367	368	369	370	371	372	373	374	375	376	377	378	379	380	381	382	383	384	385	386	387	388	389	390	391	392	393	394	395	396	397	398	399	400	401	402	403	404	405	406	407	408	409	410	411	412	413	414	415	416	417	418	419	420	421	422	423	424	425	426	427	428	429	430	431	432	433	434	435	436	437	438	439	440	441	442	443	444	445	446	447	448	449	450	451	452	453	454	455	456	457	458	459	460	461	462	463	464	465	466	467	468	469	470	471	472	473	474	475	476	477	478	479	480	481	482	483	484	485	486	487	488	489	490	491	492	493	494	495	496	497	498	499	500	501	502	503	504	505	506	507	508	509	510	511	512	513	514	515	516	517	518	519	520	521	522	523	524	525	526	527	528	529	530	531	532	533	534	535	536	537	538	539	540	3125	3126	3129	3130	3132	3131	3127	3133	3134	3136	3137	3138	3140	3139	3141	3142	3144	3143	544	545	546	547	548	549	550	551	552	553	554	555	556	557	558	559	560	561	562	563	564	3145	3149	3153	3154	3156	3155	3152	3151	3148	3147	3165	3166	3168	3167	3162	3173	3174	3176	3175	3169	3170	3172	3171	3177	3178	3185	3186	3188	3187	3181	3182	3184	3183	3201	3202	3204	3203	3205	3206	3208	3207	3213	3214	3216	3215	3209	3210	3212	3211	3189	3193	3194	3196	3195	3192	3191	3221	3222	3224	3225	3226	3228	3227	3229	3230	3232	3231	3257	3258	3260	3259	3261	3262	3264	3263	3269	3270	3272	3271	3265	3266	3268	3267	3237	3238	3240	3239	3241	3242	3244	3243	3249	3250	3252	3251	3245	3246	3248	3247	3273	3274	3289	3290	3297	3298	3300	3299	3293	3294	3296	3295	3277	3278	3285	3286	3288	3287	3281	3282	3284	3283	3301	3302	3309	3310	3312	3311	3305	3306	3308	3307	3313	3314	3316	3315	571	572	573	574	575	576	577	578	579	580	581	582	583	584	585	586	587	588	589	3317	3321	3322	3324	3323	3320	3319	3333	3334	3336	3335	3337	3338	3340	3339	3341	3342	3344	3343	3331	3349	3350	3352	3351	3353	3354	3356	3355	3361	3362	3364	3363	3357	3358	3360	3359	3369	3373	3374	3376	3375	3372	3371	3365	3366	3368	3367	3385	3386	3388	3387	3389	3390	3392	3391	3397	3398	3400	3399	3393	3394	3396	3395	3405	3406	3408	3407	3409	3410	3412	3411	3417	3418	3420	3419	3413	3414	3416	3415	3445	3446	3448	3447	3449	3450	3452	3451	3457	3458	3460	3459	3453	3454	3456	3455	3425	3426	3428	3427	3429	3430	3432	3431	3437	3438	3440	3439	3433	3434	3436	3435	3469	3470	3472	3471	3473	3474	3476	3475	3481	3482	3484	3483	3477	3478	3480	3479	3489	3490	3492	3491	3486	3497	3498	3500	3499	3493	3494	3496	3495	3525	3526	3528	3527	3529	3530	3532	3531	3537	3538	3540	3539	3533	3534	3536	3535	3505	3506	3508	3507	3509	3510	3512	3511	3517	3518	3520	3519	3513	3514	3516	3515	3545	3546	3548	3549	3550	3552	3551	3542	3544	3553	3554	3556	3555	595	596	597	598	599	600	601	602	603	604	605	606	607	608	609	610	611	612	613	614	3557	3558	3560	3559	3565	3569	3570	3572	3571	3568	3567	3577	3578	3580	3579	3581	3582	3584	3583	3585	3586	3588	3587	3575	3589	3590	3592	3591	3563	3601	3602	3604	3603	3605	3606	3608	3607	3613	3614	3616	3615	3609	3610	3612	3611	3621	3622	3624	3623	3618	3620	3619	3596	3629	3630	3632	3631	3626	3628	3627	3633	3634	3636	3635	619	620	621	622	623	624	625	626	627	628	629	630	631	632	633	634	635	636	637	638	639	3637	3638	3640	3639	3641	3642	3644	3643	642	643	644	645	646	647	648	649	650	651	652	653	654	655	656	657	658	659	660	661	662	663	664	665	666	667	668	669	670	671	672	673	674	675	676	677	678	679	680	681	682	683	684	685	686	687	688	689	690	691	692	693	694	695	696	697	698	699	700	701	702	703	704	705	706	707	708	709	710	711	712	713	714	715	716	717	718	719	720	721	722	723	724	725	726	727	728	729	730	731	732	733	734	735	736	737	738	739	740	741	742	743	744	745	746	747	748	749	750	751	752	753	754	755	756	757	758	759	760	761	762	763	764	765	766	767	768	769	770	771	772	773	774	775	776	777	778	779	780	781	782	783	784	785	786	787	788	789	790	791	792	793	794	795	796	797	798	799	800	801	802	803	804	805	806	807	808	809	810	811	812	813	814	815	816	817	818	819	820	821	822	823	824	825	826	827	828	829	830	831	832	833	834	835	836	837	838	839	840	841	842	843	844	845	846	847	848	849	850	851	852	853	854	855	856	857	858	859	860	861	862	863	864	865	866	867	868	869	870	871	872	873	874	875	876	877	878	879	880	881	882	883	884	885	886	887	888	889	890	891	892	893	894	895	896	897	898	899	900	901	902	903	904	905	906	907	908	909	910	911	912	913	914	915	916	917	918	919	920	921	922	923	924	3645	3646	3648	3647	3649	3650	3652	3651	3653	3654	3656	3655	928	929	930	931	932	933	934	935	936	937	938	939	940	941	942	943	944	945	946	947	948	3657	3661	3662	3664	3663	3660	3659	3669	3670	3672	3671	3673	3674	3676	3675	3681	3682	3684	3683	3677	3678	3680	3679	3689	3690	3692	3691	3686	3697	3698	3700	3699	3693	3694	3696	3695	3701	3702	3709	3710	3712	3711	3705	3706	3708	3707	3713	3714	3716	3715	3717	3718	3720	3719	955	956	957	958	959	960	961	962	963	964	965	966	967	968	969	970	971	972	973	3721	3722	3724	3723	3729	3730	3732	3731	3733	3734	3736	3735	3737	3738	3740	3739	3727	3745	3746	3748	3747	3749	3750	3752	3751	3757	3758	3760	3759	3753	3754	3756	3755	3765	3766	3768	3767	3769	3770	3772	3771	3777	3778	3780	3779	3773	3774	3776	3775	3785	3786	3788	3787	3782	3784	3783	979	980	981	982	983	984	985	986	987	988	989	990	991	992	993	994	995	996	997	998	3789	3790	3792	3791	3797	3798	3800	3799	3801	3802	3804	3803	3796	3795	3809	3810	3812	3811	3813	3814	3816	3815	3808	3817	3818	3820	3819	3821	3822	3824	3823	1003	1004	1005	1006	1007	1008	1009	1010	1011	1012	1013	1014	1015	1016	1017	1018	1019	1020	1021	1022	1023	1024	3825	3826	3828	3827	1026	1027	1028	1029	1030	1031	1032	1033	1034	1035	1036	1037	1038	1039	1040	1041	1042	1043	1044	1045	1046	1047	1048	1049	1050	1051	1052	1053	1054	1055	1056	1057	1058	1059	1060	1061	1062	1063	1064	1065	1066	1067	1068	1069	1070	1071	1072	1073	1074	1075	1076	1077	1078	1079	1080	1081	1082	1083	1084	1085	1086	1087	1088	1089	1090	1091	1092	1093	1094	1095	1096	1097	1098	1099	1100	1101	1102	1103	1104	1105	1106	1107	1108	1109	1110	1111	1112	1113	1114	1115	1116	1117	1118	1119	1120	1121	1122	1123	1124	1125	1126	1127	1128	1129	1130	1131	1132	1133	1134	1135	1136	1137	1138	1139	1140	1141	1142	1143	1144	1145	1146	1147	1148	1149	1150	1151	1152	1153	1154	1155	1156	1157	1158	1159	1160	1161	1162	1163	1164	1165	1166	1167	1168	1169	1170	1171	1172	1173	1174	1175	1176	1177	1178	1179	1180	1181	1182	1183	1184	1185	1186	1187	1188	1189	1190	1191	1192	1193	1194	1195	1196	1197	1198	1199	1200	1201	1202	1203	1204	1205	1206	1207	1208	1209	1210	1211	1212	1213	1214	1215	1216	1217	1218	1219	1220	1221	1222	1223	1224	1225	1226	1227	1228	1229	1230	1231	1232	1233	1234	1235	1236	1237	1238	1239	1240	1241	1242	1243	1244	1245	1246	1247	1248	1249	1250	1251	1252	1253	1254	1255	1256	1257	1258	1259	1260	1261	1262	1263	1264	1265	1266	1267	1268	1269	1270	1271	1272	1273	1274	1275	1276	1277	1278	1279	1280	1281	1282	1283	1284	1285	1286	1287	1288	1289	1290	1291	1292	1293	1294	1295	1296	1297	1298	1299	1300	1301	1302	1303	1304	1305	1306	1307	1308	1309	1310	1311	1312	1313	1314	1315	1316	1317	1318	1319	1320	1321	1322	1323	1324	1325	1326	1327	1328	1329	1330	1331	1332	3829	3830	3832	3831	3833	3834	3836	3835	3837	3838	3840	3839	3841	3842	3844	3843	1337	1338	1339	1340	1341	1342	1343	1344	1345	1346	1347	1348	1349	1350	1351	1352	1353	1354	1355	1356	1357	1358	3845	3846	3848	3847	3849	3850	3852	3851	3853	3854	3856	3855	3857	3858	3860	3859	1363	1364	1365	1366	1367	1368	1369	1370	1371	1372	1373	1374	1375	1376	1377	1378	1379	1380	1381	1382	1383	3861	3862	3864	3863	3865	3866	3868	3867	1386	1387	1388	1389	1390	1391	1392	1393	1394	1395	1396	1397	1398	1399	1400	1401	1402	1403	1404	1405	1406	1407	1408	1409	1410	1411	1412	1413	1414	1415	1416	1417	1418	1419	1420	1421	1422	1423	1424	1425	1426	1427	1428	1429	1430	1431	1432	1433	1434	1435	1436	1437	1438	1439	1440	1441	1442	1443	1444	1445	1446	1447	1448	1449	1450	1451	1452	1453	1454	1455	1456	1457	1458	1459	1460	1461	1462	1463	1464	1465	1466	1467	1468	1469	1470	1471	1472	1473	1474	1475	1476	1477	1478	1479	1480	1481	1482	1483	1484	1485	1486	1487	1488	1489	1490	1491	1492	1493	1494	1495	1496	1497	1498	1499	1500	1501	1502	1503	1504	1505	1506	1507	1508	1509	1510	1511	1512	1513	1514	1515	1516	1517	1518	1519	1520	1521	1522	1523	1524	1525	1526	1527	1528	1529	1530	1531	1532	1533	1534	1535	1536	</DataArray>