<?xml version="1.0"?>
<VTKFile type="UnstructuredGrid" version="0.1" byte_order="BigEndian">
<UnstructuredGrid GhostLevel="0">
<Piece NumberOfPoints="19200" NumberOfCells="2400" ><Points>
<DataArray type="Float64" NumberOfComponents="3" format="ascii">
-48	83.1384	-6	-48	83.1384	-6.5	-40.6388	87.3884	-6	-40.6388	87.3884	-6.5	-37.6388	82.1923	-6	-37.6388	82.1923	-6.5	-45	77.9423	-6	-45	77.9423	-6.5	-40.6388	87.3884	-6	-40.6388	87.3884	-6.5	-33.2776	91.6384	-6	-33.2776	91.6384	-6.5	-30.2776	86.4423	-6	-30.2776	86.4423	-6.5	-37.6388	82.1923	-6	-37.6388	82.1923	-6.5	-33.2776	91.6384	-6	-33.2776	91.6384	-6.5	-25.9164	95.8884	-6	-25.9164	95.8884	-6.5	-22.9164	90.6923	-6	-22.9164	90.6923	-6.5	-30.2776	86.4423	-6	-30.2776	86.4423	-6.5	-25.9164	95.8884	-6	-25.9164	95.8884	-6.5	-18.5551	100.138	-6	-18.5551	100.138	-6.5	-15.5551	94.9423	-6	-15.5551	94.9423	-6.5	-22.9164	90.6923	-6	-22.9164	90.6923	-6.5	-18.5551	100.138	-6	-18.5551	100.138	-6.5	-11.1939	104.388	-6	-11.1939	104.388	-6.5	-8.19392	99.1923	-6	-8.19392	99.1923	-6.5	-15.5551	94.9423	-6	-15.5551	94.9423	-6.5	-11.1939	104.388	-6	-11.1939	104.388	-6.5	-3.8327	108.638	-6	-3.8327	108.638	-6.5	-0.832703	103.442	-6	-0.832703	103.442	-6.5	-8.19392	99.1923	-6	-8.19392	99.1923	-6.5	-3.8327	108.638	-6	-3.8327	108.638	-6.5	3.52851	112.888	-6	3.52851	112.888	-6.5	6.52851	107.692	-6	6.52851	107.692	-6.5	-0.832703	103.442	-6	-0.832703	103.442	-6.5	3.52851	112.888	-6	3.52851	112.888	-6.5	10.8897	117.138	-6	10.8897	117.138	-6.5	13.8897	111.942	-6	13.8897	111.942	-6.5	6.52851	107.692	-6	6.52851	107.692	-6.5	10.8897	117.138	-6	10.8897	117.138	-6.5	18.2509	121.388	-6	18.2509	121.388	-6.5	21.2509	116.192	-6	21.2509	116.192	-6.5	13.8897	111.942	-6	13.8897	111.942	-6.5	18.2509	121.388	-6	18.2509	121.388	-6.5	25.6122	125.638	-6	25.6122	125.638	-6.5	28.6122	120.442	-6	28.6122	120.442	-6.5	21.2509	116.192	-6	21.2509	116.192	-6.5	25.6122	125.638	-6	25.6122	125.638	-6.5	32.9734	129.888	-6	32.9734	129.888	-6.5	35.9734	124.692	-6	35.9734	124.692	-6.5	28.6122	120.442	-6	28.6122	120.442	-6.5	32.9734	129.888	-6	32.9734	129.888	-6.5	40.3346	134.138	-6	40.3346	134.138	-6.5	43.3346	128.942	-6	43.3346	128.942	-6.5	35.9734	124.692	-6	35.9734	124.692	-6.5	40.3346	134.138	-6	40.3346	134.138	-6.5	47.6958	138.388	-6	47.6958	138.388	-6.5	50.6958	133.192	-6	50.6958	133.192	-6.5	43.3346	128.942	-6	43.3346	128.942	-6.5	47.6958	138.388	-6	47.6958	138.388	-6.5	55.057	142.638	-6	55.057	142.638	-6.5	58.057	137.442	-6	58.057	137.442	-6.5	50.6958	133.192	-6	50.6958	133.192	-6.5	55.057	142.638	-6	55.057	142.638	-6.5	62.4182	146.888	-6	62.4182	146.888	-6.5	65.4182	141.692	-6	65.4182	141.692	-6.5	58.057	137.442	-6	58.057	137.442	-6.5	62.4182	146.888	-6	62.4182	146.888	-6.5	69.7795	151.138	-6	69.7795	151.138	-6.5	72.7795	145.942	-6	72.7795	145.942	-6.5	65.4182	141.692	-6	65.4182	141.692	-6.5	69.7795	151.138	-6	69.7795	151.138	-6.5	77.1407	155.388	-6	77.1407	155.388	-6.5	80.1407	150.192	-6	80.1407	150.192	-6.5	72.7795	145.942	-6	72.7795	145.942	-6.5	77.1407	155.388	-6	77.1407	155.388	-6.5	84.5019	159.638	-6	84.5019	159.638	-6.5	87.5019	154.442	-6	87.5019	154.442	-6.5	80.1407	150.192	-6	80.1407	150.192	-6.5	84.5019	159.638	-6	84.5019	159.638	-6.5	91.8631	163.888	-6	91.8631	163.888	-6.5	94.8631	158.692	-6	94.8631	158.692	-6.5	87.5019	154.442	-6	87.5019	154.442	-6.5	91.8631	163.888	-6	91.8631	163.888	-6.5	99.2243	168.138	-6	99.2243	168.138	-6.5	102.224	162.942	-6	102.224	162.942	-6.5	94.8631	158.692	-6	94.8631	158.692	-6.5	99.2243	168.138	-6	99.2243	168.138	-6.5	106.586	172.388	-6	106.586	172.388	-6.5	109.586	167.192	-6	109.586	167.192	-6.5	102.224	162.942	-6	102.224	162.942	-6.5	106.586	172.388	-6	106.586	172.388	-6.5	113.947	176.638	-6	113.947	176.638	-6.5	116.947	171.442	-6	116.947	171.442	-6.5	109.586	167.192	-6	109.586	167.192	-6.5	113.947	176.638	-6	113.947	176.638	-6.5	121.308	180.888	-6	121.308	180.888	-6.5	124.308	175.692	-6	124.308	175.692	-6.5	116.947	171.442	-6	116.947	171.442	-6.5	121.308	180.888	-6	121.308	180.888	-6.5	128.669	185.138	-6	128.669	185.138	-6.5	131.669	179.942	-6	131.669	179.942	-6.5	124.308	175.692	-6	124.308	175.692	-6.5	-45	77.9423	-6	-45	77.9423	-6.5	-37.6388	82.1923	-6	-37.6388	82.1923	-6.5	-34.6388	76.9961	-6	-34.6388	76.9961	-6.5	-42	72.7461	-6	-42	72.7461	-6.5	-37.6388	82.1923	-6	-37.6388	82.1923	-6.5	-30.2776	86.4423	-6	-30.2776	86.4423	-6.5	-27.2776	81.2461	-6	-27.2776	81.2461	-6.5	-34.6388	76.9961	-6	-34.6388	76.9961	-6.5	-30.2776	86.4423	-6	-30.2776	86.4423	-6.5	-22.9164	90.6923	-6	-22.9164	90.6923	-6.5	-19.9164	85.4961	-6	-19.9164	85.4961	-6.5	-27.2776	81.2461	-6	-27.2776	81.2461	-6.5	-22.9164	90.6923	-6	-22.9164	90.6923	-6.5	-15.5551	94.9423	-6	-15.5551	94.9423	-6.5	-12.5551	89.7461	-6	-12.5551	89.7461	-6.5	-19.9164	85.4961	-6	-19.9164	85.4961	-6.5	-15.5551	94.9423	-6	-15.5551	94.9423	-6.5	-8.19392	99.1923	-6	-8.19392	99.1923	-6.5	-5.19392	93.9961	-6	-5.19392	93.9961	-6.5	-12.5551	89.7461	-6	-12.5551	89.7461	-6.5	-8.19392	99.1923	-6	-8.19392	99.1923	-6.5	-0.832703	103.442	-6	-0.832703	103.442	-6.5	2.1673	98.2461	-6	2.1673	98.2461	-6.5	-5.19392	93.9961	-6	-5.19392	93.9961	-6.5	-0.832703	103.442	-6	-0.832703	103.442	-6.5	6.52851	107.692	-6	6.52851	107.692	-6.5	9.52851	102.496	-6	9.52851	102.496	-6.5	2.1673	98.2461	-6	2.1673	98.2461	-6.5	6.52851	107.692	-6	6.52851	107.692	-6.5	13.8897	111.942	-6	13.8897	111.942	-6.5	16.8897	106.746	-6	16.8897	106.746	-6.5	9.52851	102.496	-6	9.52851	102.496	-6.5	13.8897	111.942	-6	13.8897	111.942	-6.5	21.2509	116.192	-6	21.2509	116.192	-6.5	24.2509	110.996	-6	24.2509	110.996	-6.5	16.8897	106.746	-6	16.8897	106.746	-6.5	21.2509	116.192	-6	21.2509	116.192	-6.5	28.6122	120.442	-6	28.6122	120.442	-6.5	31.6122	115.246	-6	31.6122	115.246	-6.5	24.2509	110.996	-6	24.2509	110.996	-6.5	28.6122	120.442	-6	28.6122	120.442	-6.5	35.9734	124.692	-6	35.9734	124.692	-6.5	38.9734	119.496	-6	38.9734	119.496	-6.5	31.6122	115.246	-6	31.6122	115.246	-6.5	35.9734	124.692	-6	35.9734	124.692	-6.5	43.3346	128.942	-6	43.3346	128.942	-6.5	46.3346	123.746	-6	46.3346	123.746	-6.5	38.9734	119.496	-6	38.9734	119.496	-6.5	43.3346	128.942	-6	43.3346	128.942	-6.5	50.6958	133.192	-6	50.6958	133.192	-6.5	53.6958	127.996	-6	53.6958	127.996	-6.5	46.3346	123.746	-6	46.3346	123.746	-6.5	50.6958	133.192	-6	50.6958	133.192	-6.5	58.057	137.442	-6	58.057	137.442	-6.5	61.057	132.246	-6	61.057	132.246	-6.5	53.6958	127.996	-6	53.6958	127.996	-6.5	58.057	137.442	-6	58.057	137.442	-6.5	65.4182	141.692	-6	65.4182	141.692	-6.5	68.4182	136.496	-6	68.4182	136.496	-6.5	61.057	132.246	-6	61.057	132.246	-6.5	65.4182	141.692	-6	65.4182	141.692	-6.5	72.7795	145.942	-6	72.7795	145.942	-6.5	75.7795	140.746	-6	75.7795	140.746	-6.5	68.4182	136.496	-6	68.4182	136.496	-6.5	72.7795	145.942	-6	72.7795	145.942	-6.5	80.1407	150.192	-6	80.1407	150.192	-6.5	83.1407	144.996	-6	83.1407	144.996	-6.5	75.7795	140.746	-6	75.7795	140.746	-6.5	80.1407	150.192	-6	80.1407	150.192	-6.5	87.5019	154.442	-6	87.5019	154.442	-6.5	90.5019	149.246	-6	90.5019	149.246	-6.5	83.1407	144.996	-6	83.1407	144.996	-6.5	87.5019	154.442	-6	87.5019	154.442	-6.5	94.8631	158.692	-6	94.8631	158.692	-6.5	97.8631	153.496	-6	97.8631	153.496	-6.5	90.5019	149.246	-6	90.5019	149.246	-6.5	94.8631	158.692	-6	94.8631	158.692	-6.5	102.224	162.942	-6	102.224	162.942	-6.5	105.224	157.746	-6	105.224	157.746	-6.5	97.8631	153.496	-6	97.8631	153.496	-6.5	102.224	162.942	-6	102.224	162.942	-6.5	109.586	167.192	-6	109.586	167.192	-6.5	112.586	161.996	-6	112.586	161.996	-6.5	105.224	157.746	-6	105.224	157.746	-6.5	109.586	167.192	-6	109.586	167.192	-6.5	116.947	171.442	-6	116.947	171.442	-6.5	119.947	166.246	-6	119.947	166.246	-6.5	112.586	161.996	-6	112.586	161.996	-6.5	116.947	171.442	-6	116.947	171.442	-6.5	124.308	175.692	-6	124.308	175.692	-6.5	127.308	170.496	-6	127.308	170.496	-6.5	119.947	166.246	-6	119.947	166.246	-6.5	124.308	175.692	-6	124.308	175.692	-6.5	131.669	179.942	-6	131.669	179.942	-6.5	134.669	174.746	-6	134.669	174.746	-6.5	127.308	170.496	-6	127.308	170.496	-6.5	-42	72.7461	-6	-42	72.7461	-6.5	-34.6388	76.9961	-6	-34.6388	76.9961	-6.5	-31.6388	71.8	-6	-31.6388	71.8	-6.5	-39	67.55	-6	-39	67.55	-6.5	-34.6388	76.9961	-6	-34.6388	76.9961	-6.5	-27.2776	81.2461	-6	-27.2776	81.2461	-6.5	-24.2776	76.05	-6	-24.2776	76.05	-6.5	-31.6388	71.8	-6	-31.6388	71.8	-6.5	-27.2776	81.2461	-6	-27.2776	81.2461	-6.5	-19.9164	85.4961	-6	-19.9164	85.4961	-6.5	-16.9164	80.3	-6	-16.9164	80.3	-6.5	-24.2776	76.05	-6	-24.2776	76.05	-6.5	-19.9164	85.4961	-6	-19.9164	85.4961	-6.5	-12.5551	89.7461	-6	-12.5551	89.7461	-6.5	-9.55514	84.55	-6	-9.55514	84.55	-6.5	-16.9164	80.3	-6	-16.9164	80.3	-6.5	-12.5551	89.7461	-6	-12.5551	89.7461	-6.5	-5.19392	93.9961	-6	-5.19392	93.9961	-6.5	-2.19392	88.8	-6	-2.19392	88.8	-6.5	-9.55514	84.55	-6	-9.55514	84.55	-6.5	-5.19392	93.9961	-6	-5.19392	93.9961	-6.5	2.1673	98.2461	-6	2.1673	98.2461	-6.5	5.1673	93.05	-6	5.1673	93.05	-6.5	-2.19392	88.8	-6	-2.19392	88.8	-6.5	2.1673	98.2461	-6	2.1673	98.2461	-6.5	9.52851	102.496	-6	9.52851	102.496	-6.5	12.5285	97.3	-6	12.5285	97.3	-6.5	5.1673	93.05	-6	5.1673	93.05	-6.5	9.52851	102.496	-6	9.52851	102.496	-6.5	16.8897	106.746	-6	16.8897	106.746	-6.5	19.8897	101.55	-6	19.8897	101.55	-6.5	12.5285	97.3	-6	12.5285	97.3	-6.5	16.8897	106.746	-6	16.8897	106.746	-6.5	24.2509	110.996	-6	24.2509	110.996	-6.5	27.2509	105.8	-6	27.2509	105.8	-6.5	19.8897	101.55	-6	19.8897	101.55	-6.5	24.2509	110.996	-6	24.2509	110.996	-6.5	31.6122	115.246	-6	31.6122	115.246	-6.5	34.6122	110.05	-6	34.6122	110.05	-6.5	27.2509	105.8	-6	27.2509	105.8	-6.5	31.6122	115.246	-6	31.6122	115.246	-6.5	38.9734	119.496	-6	38.9734	119.496	-6.5	41.9734	114.3	-6	41.9734	114.3	-6.5	34.6122	110.05	-6	34.6122	110.05	-6.5	38.9734	119.496	-6	38.9734	119.496	-6.5	46.3346	123.746	-6	46.3346	123.746	-6.5	49.3346	118.55	-6	49.3346	118.55	-6.5	41.9734	114.3	-6	41.9734	114.3	-6.5	46.3346	123.746	-6	46.3346	123.746	-6.5	53.6958	127.996	-6	53.6958	127.996	-6.5	56.6958	122.8	-6	56.6958	122.8	-6.5	49.3346	118.55	-6	49.3346	118.55	-6.5	53.6958	127.996	-6	53.6958	127.996	
[...]
<CellData Scalars="scalars">
<DataArray type="Int32" Name="nodeid" format="ascii">1	2	3	4	5	6	7	8	9	10	11	12	13	14	15	16	17	18	19	20	21	22	23	24	25	26	27	28	29	30	31	32	33	34	35	36	37	38	39	40	41	42	43	44	45	46	47	48	49	50	51	52	53	54	55	56	57	58	59	60	61	62	63	64	65	66	67	68	69	70	71	72	73	74	75	76	77	78	79	80	81	82	83	84	85	86	87	88	89	90	91	92	93	94	95	96	97	98	99	100	101	102	103	104	105	106	107	108	109	110	111	112	113	114	115	116	117	118	119	120	121	122	123	124	125	126	127	128	129	130	131	132	133	134	135	136	137	138	139	140	141	142	143	144	145	146	147	148	149	150	151	152	153	154	155	156	157	158	159	160	161	162	163	164	165	166	167	168	169	170	171	172	173	174	175	176	1537	1538	1540	1539	1541	1542	1544	1543	1545	1546	1548	1547	180	181	182	183	184	185	186	187	188	189	190	191	192	193	194	195	196	197	198	199	1549	1550	1552	1551	1557	1558	1560	1559	1561	1562	1564	1563	1565	1566	1568	1567	1555	1573	1574	1576	1575	1577	1578	1580	1579	1585	1586	1588	1587	1581	1582	1584	1583	1593	1594	1596	1595	1590	1601	1602	1604	1603	1597	1598	1600	1599	1605	1606	1613	1614	1616	1615	1609	1610	1612	1611	1617	1618	1625	1626	1628	1627	1621	1622	1624	1623	1629	1630	1637	1638	1640	1639	1633	1634	1636	1635	1641	1642	1649	1650	1652	1651	1645	1646	1648	1647	1653	1654	1661	1662	1664	1663	1657	1658	1660	1659	1665	1666	1668	1669	1670	1672	1671	210	211	212	213	214	215	216	217	218	219	220	221	222	223	224	1673	1674	1676	1675	1677	1678	1680	1679	1681	1685	1686	1688	1687	1684	1683	1693	1694	1696	1695	1697	1698	1700	1699	1692	1691	1705	1706	1708	1707	1709	1710	1712	1711	1717	1718	1720	1719	1713	1714	1716	1715	1725	1726	1728	1727	1729	1730	1732	1731	1737	1738	1740	1739	1733	1734	1736	1735	1745	1746	1748	1747	1749	1750	1752	1751	1757	1758	1760	1759	1753	1754	1756	1755	1765	1766	1768	1767	1769	1770	1772	1771	1777	1778	1780	1779	1773	1774	1776	1775	1785	1786	1788	1787	1782	1784	1783	234	235	236	237	238	239	240	241	242	243	244	245	246	247	248	249	250	251	252	1789	1790	1792	1791	1793	1794	1796	1795	1801	1802	1804	1803	1805	1806	1808	1807	1800	1799	1813	1814	1816	1815	1817	1818	1820	1819	1812	1811	1821	1822	1824	1823	258	259	260	261	262	263	264	265	266	267	268	269	270	271	272	273	274	275	276	277	278	279	280	281	282	283	284	285	286	287	288	289	290	291	292	293	294	295	296	297	298	299	300	301	302	303	304	305	306	307	308	309	310	311	312	313	314	315	316	317	318	319	320	321	322	323	324	325	326	327	328	329	330	331	332	333	334	335	336	337	338	339	340	341	342	343	344	345	346	347	348	349	350	351	352	353	354	355	356	357	358	359	360	361	362	363	364	365	366	367	368	369	370	371	372	373	374	375	376	377	378	379	380	381	382	383	384	385	386	387	388	389	390	391	392	393	394	395	396	397	398	399	400	401	402	403	404	405	406	407	408	409	410	411	412	413	414	415	416	417	418	419	420	421	422	423	424	425	426	427	428	429	430	431	432	433	434	435	436	437	438	439	440	441	442	443	444	445	446	447	448	449	450	451	452	453	454	455	456	457	458	459	460	461	462	463	464	465	466	467	468	469	470	471	472	473	474	475	476	477	478	479	480	481	482	483	484	485	486	487	488	489	490	491	492	493	494	495	496	497	498	499	500	501	502	503	504	505	506	507	508	509	510	511	512	513	514	515	516	517	518	519	520	521	522	523	524	525	526	527	528	529	530	531	532	533	534	535	536	537	538	539	540	541	542	543	544	545	546	547	548	549	550	551	552	553	554	555	556	557	558	559	560	1825	1826	1828	1827	1829	1830	1832	1831	1833	1834	1836	1835	564	565	566	567	568	569	570	571	572	573	574	575	576	577	578	579	580	581	582	583	1837	1838	1840	1839	1845	1846	1848	1847	1849	1850	1852	1851	1853	1854	1856	1855	1843	1861	1862	1864	1863	1865	1866	1868	1867	1873	1874	1876	1875	1869	1870	1872	1871	1881	1882	1884	1883	1878	1889	1890	1892	1891	1885	1886	1888	1887	1893	1894	1901	1902	1904	1903	1897	1898	1900	1899	1905	1906	1913	1914	1916	1915	1909	1910	1912	1911	1917	1918	1925	1926	1928	1927	1921	1922	1924	1923	1929	1930	1937	1938	1940	1939	1933	1934	1936	1935	1941	1942	1949	1950	1952	1951	1945	1946	1948	1947	1953	1954	1956	1957	1958	1960	1959	594	595	596	597	598	599	600	601	602	603	604	605	606	607	608	1961	1962	1964	1963	1965	1966	1968	1967	1969	1973	1974	1976	1975	1972	1971	1981	1982	1984	1983	1985	1986	1988	1987	1980	1979	1993	1994	1996	1995	1997	1998	2000	1999	2005	2006	2008	2007	2001	2002	2004	2003	2013	2014	2016	2015	2017	2018	2020	2019	2025	2026	2028	2027	2021	2022	2024	2023	2033	2034	2036	2035	2037	2038	2040	2039	2045	2046	2048	2047	2041	2042	2044	2043	2053	2054	2056	2055	2057	2058	2060	2059	2065	2066	2068	2067	2061	2062	2064	2063	2073	2074	2076	2075	2070	2072	2071	618	619	620	621	622	623	624	625	626	627	628	629	630	631	632	633	634	635	636	2077	2078	2080	2079	2081	2082	2084	2083	2089	2090	2092	2091	2093	2094	2096	2095	2088	2087	2101	2102	2104	2103	2105	2106	2108	2107	2100	2099	2109	2110	2112	2111	642	643	644	645	646	647	648	649	650	651	652	653	654	655	656	657	658	659	660	661	662	663	664	665	666	667	668	669	670	671	672	673	674	675	676	677	678	679	680	681	682	683	684	685	686	687	688	689	690	691	692	693	694	695	696	697	698	699	700	701	702	703	704	705	706	707	708	709	710	711	712	713	714	715	716	717	718	719	720	721	722	723	724	725	726	727	728	729	730	731	732	733	734	735	736	737	738	739	740	741	742	743	744	745	746	747	748	749	750	751	752	753	754	755	756	757	758	759	760	761	762	763	764	765	766	767	768	769	770	771	772	773	774	775	776	777	778	779	780	781	782	783	784	785	786	787	788	789	790	791	792	793	794	795	796	797	798	799	800	801	802	803	804	805	806	807	808	809	810	811	812	813	814	815	816	817	818	819	820	821	822	823	824	825	826	827	828	829	830	831	832	833	834	835	836	837	838	839	840	841	842	843	844	845	846	847	848	849	850	851	852	853	854	855	856	857	858	859	860	861	862	863	864	865	866	867	868	869	870	871	872	873	874	875	876	877	878	879	880	881	882	883	884	885	886	887	888	889	890	891	892	893	894	895	896	897	898	899	900	901	902	903	904	905	906	907	908	909	910	911	912	913	914	915	916	917	918	919	920	921	922	923	924	925	926	927	928	929	930	931	932	933	934	935	936	937	938	939	940	941	942	943	944	2113	2114	2116	2115	2117	2118	2120	2119	2121	2122	2124	2123	948	949	950	951	952	953	954	955	956	957	958	959	960	961	962	963	964	965	966	967	2125	2126	2128	2127	2133	2134	2136	2135	2137	2138	2140	2139	2141	2142	2144	2143	2131	2149	2150	2152	2151	2153	2154	2156	2155	2161	2162	2164	2163	2157	2158	2160	2159	2169	2170	2172	2171	2166	2177	2178	2180	2179	2173	2174	2176	2175	2181	2182	2189	2190	2192	2191	2185	2186	2188	2187	2193	2194	2201	2202	2204	2203	2197	2198	2200	2199	2205	2206	2213	2214	2216	2215	2209	2210	2212	2211	2217	2218	2225	2226	2228	2227	2221	2222	2224	2223	2229	2230	2237	2238	2240	2239	2233	2234	2236	2235	2241	2242	2244	2245	2246	2248	2247	978	979	980	981	982	983	984	985	986	987	988	989	990	991	992	2249	2250	2252	2251	2253	2254	2256	2255	2257	2261	2262	2264	2263	2260	2259	2269	2270	2272	2271	2273	2274	2276	2275	2268	2267	2281	2282	2284	2283	2285	2286	2288	2287	2293	2294	2296	2295	2289	2290	2292	2291	2301	2302	2304	2303	2305	2306	2308	2307	2313	2314	2316	2315	2309	2310	2312	2311	2321	2322	2324	2323	2325	2326	2328	2327	2333	2334	2336	2335	2329	2330	2332	2331	2341	2342	2344	2343	2345	2346	2348	2347	2353	2354	2356	2355	2349	2350	2352	2351	2361	2362	2364	2363	2358	2360	2359	1002	1003	1004	1005	1006	1007	1008	1009	1010	1011	1012	1013	1014	1015	1016	1017	1018	1019	1020	2365	2366	2368	2367	2369	2370	2372	2371	2377	2378	2380	2379	2381	2382	2384	2383	2376	2375	2389	2390	2392	2391	2393	2394	2396	2395	2388	2387	2397	2398	2400	2399	1026	1027	1028	1029	1030	1031	1032	1033	1034	1035	1036	1037	1038	1039	1040	1041	1042	1043	1044	1045	1046	1047	1048	1049	1050	1051	1052	1053	1054	1055	1056	1057	1058	1059	1060	1061	1062	1063	1064	1065	1066	1067	1068	1069	1070	1071	1072	1073	1074	1075	1076	1077	1078	1079	1080	1081	1082	1083	1084	1085	1086	1087	1088	1089	1090	1091	1092	1093	1094	1095	1096	1097	1098	1099	1100	1101	1102	1103	1104	1105	1106	1107	1108	1109	1110	1111	1112	1113	1114	1115	1116	1117	1118	1119	1120	1121	1122	1123	1124	1125	1126	1127	1128	1129	1130	1131	1132	1133	1134	1135	1136	1137	1138	1139	1140	1141	1142	1143	1144	1145	1146	1147	1148	1149	1150	1151	1152	1153	1154	1155	1156	1157	1158	1159	1160	1161	1162	1163	1164	1165	1166	1167	1168	1169	1170	1171	1172	1173	1174	1175	1176	1177	1178	1179	1180	1181	1182	1183	1184	1185	1186	1187	1188	1189	1190	1191	1192	1193	1194	1195	1196	1197	1198	1199	1200	1201	1202	1203	1204	1205	1206	1207	1208	1209	1210	1211	1212	1213	1214	1215	1216	1217	1218	1219	1220	1221	1222	1223	1224	1225	1226	1227	1228	1229	1230	1231	1232	1233	1234	1235	1236	1237	1238	1239	1240	1241	1242	1243	1244	1245	1246	1247	1248	1249	1250	1251	1252	1253	1254	1255	1256	1257	1258	1259	1260	1261	1262	1263	1264	1265	1266	1267	1268	1269	1270	1271	1272	1273	1274	1275	1276	1277	1278	1279	1280	1281	1282	1283	1284	1285	1286	1287	1288	1289	1290	1291	1292	1293	1294	1295	1296	1297	1298	1299	1300	1301	1302	1303	1304	1305	1306	1307	1308	1309	1310	1311	1312	1313	1314	1315	1316	1317	1318	1319	1320	1321	1322	1323	1324	1325	1326	1327	1328	2401	2402	2404	2403	2405	2406	2408	2407	2409	2410	2412	2411	1332	1333	1334	1335	1336	1337	1338	1339	1340	1341	1342	1343	1344	1345	1346	1347	1348	1349	1350	1351	2413	2414	2416	2415	2421	2422	2424	2423	2425	2426	2428	2427	2429	2430	2432	2431	2419	2437	2438	2440	2439	2441	2442	2444	2443	2449	2450	2452	2451	2445	2446	2448	2447	2457	2458	2460	2459	2454	2465	2466	2468	2467	2461	2462	2464	2463	2469	2470	2477	2478	2480	2479	2473	2474	2476	2475	2481	2482	2489	2490	2492	2491	2485	2486	2488	2487	2493	2494	2501	2502	2504	2503	2497	2498	2500	2499	2505	2506	2513	2514	2516	2515	2509	2510	2512	2511	2517	2518	2525	2526	2528	2527	2521	2522	2524	2523	2529	2530	2532	2533	2534	2536	2535	1362	1363	1364	1365	1366	1367	1368	1369	1370	1371	1372	1373	1374	1375	1376	2537	2538	2540	2539	2541	2542	2544	2543	2545	2549	2550	2552	2551	2548	2547	2557	2558	2560	2559	2561	2562	2564	2563	2556	2555	2569	2570	2572	2571	2573	2574	2576	2575	2581	2582	2584	2583	2577	2578	2580	2579	2589	2590	2592	2591	2593	2594	2596	2595	2601	2602	2604	2603	2597	2598	2600	2599	2609	2610	2612	2611	2613	2614	2616	2615	2621	2622	2624	2623	2617	2618	2620	2619	2629	2630	2632	2631	2633	2634	2636	2635	2641	2642	2644	2643	2637	2638	2640	2639	2649	2650	2652	2651	2646	2648	2647	1386	1387	1388	1389	1390	1391	1392	1393	1394	1395	1396	1397	1398	1399	1400	1401	1402	1403	1404	2653	2654	2656	2655	2657	2658	2660	2659	2665	2666	2668	2667	2669	2670	2672	2671	2664	2663	2677	2678	2680	2679	2681	2682	2684	2683	2676	2675	2685	2686	2688	2687	1410	1411	1412	1413	1414	1415	1416	1417	1418	1419	1420	1421	1422	1423	1424	1425	1426	1427	1428	1429	1430	1431	1432	1433	1434	1435	1436	1437	1438	1439	1440	1441	1442	1443	1444	1445	1446	1447	1448	1449	1450	1451	1452	1453	1454	1455	1456	1457	1458	1459	1460	1461	1462	1463	1464	1465	1466	1467	1468	1469	1470	1471	1472	1473	1474	1475	1476	1477	1478	1479	1480	1481	1482	1483	1484	1485	1486	1487	1488	1489	1490	1491	1492	1493	1494	1495	1496	1497	1498	1499	1500	1501	1502	1503	1504	1505	1506	1507	1508	1509	1510	1511	1512	1513	1514	1515	1516	1517	1518	1519	1520	1521	1522	1523	1524	1525	1526	1527	1528	1529	1530	1531	1532	1533	1534	1535	1536	</DataArray>