<?xml version="1.0"?>
<VTKFile type="UnstructuredGrid" version="0.1" byte_order="BigEndian">
<UnstructuredGrid GhostLevel="0">
<Piece NumberOfPoints="1882" NumberOfCells="1062" ><Points>
<DataArray type="Float32" NumberOfComponents="3" format="ascii">
-67.8822	67.8823	-6	-59.397	59.397	-6	-55.8614	79.9031	-6	-47.3762	71.4178	-6	-67.8822	67.8823	-8	-59.397	59.397	-8	-55.8614	79.9031	-8	-47.3762	71.4178	-8	-43.8406	91.9239	-6	-35.3553	83.4386	-6	-43.8406	91.9239	-8	-35.3553	83.4386	-8	-31.8198	103.945	-6	-23.3345	95.4594	-6	-31.8198	103.945	-8	-23.3345	95.4594	-8	-19.799	115.966	-6	-11.3137	107.48	-6	-19.799	115.966	-8	-11.3137	107.48	-8	-7.77817	127.986	-6	0.707108	119.501	-6	-7.77817	127.986	-8	0.707108	119.501	-8	4.24264	140.007	-6	12.7279	131.522	-6	4.24264	140.007	-8	12.7279	131.522	-8	16.2635	152.028	-6	24.7487	143.543	-6	16.2635	152.028	-8	24.7487	143.543	-8	28.2843	164.049	-6	36.7696	155.563	-6	28.2843	164.049	-8	36.7696	155.563	-8	40.3051	176.07	-6	48.7904	167.584	-6	40.3051	176.07	-8	48.7904	167.584	-8	52.3259	188.09	-6	60.8112	179.605	-6	52.3259	188.09	-8	60.8112	179.605	-8	64.3467	200.111	-6	72.832	191.626	-6	64.3467	200.111	-8	72.832	191.626	-8	76.3675	212.132	-6	84.8528	203.647	-6	76.3675	212.132	-8	84.8528	203.647	-8	-50.9117	50.9117	-6	-38.8909	62.9325	-6	-50.9117	50.9117	-8	-38.8909	62.9325	-8	-26.8701	74.9533	-6	-26.8701	74.9533	-8	-14.8492	86.9741	-6	-14.8492	86.9741	-8	-2.82843	98.9949	-6	-2.82843	98.9949	-8	9.19239	111.016	-6	9.19239	111.016	-8	21.2132	123.037	-6	21.2132	123.037	-8	33.234	135.057	-6	33.234	135.057	-8	45.2548	147.078	-6	45.2548	147.078	-8	57.2757	159.099	-6	57.2757	159.099	-8	69.2965	171.12	-6	69.2965	171.12	-8	81.3173	183.141	-6	81.3173	183.141	-8	93.3381	195.161	-6	93.3381	195.161	-8	-42.4264	42.4264	-6	-30.4056	54.4472	-6	-42.4264	42.4264	-8	-30.4056	54.4472	-8	-18.3848	66.468	-6	-18.3848	66.468	-8	-6.36396	78.4889	-6	-6.36396	78.4889	-8	5.65686	90.5097	-6	5.65686	90.5097	-8	17.6777	102.53	-6	17.6777	102.53	-8	29.6985	114.551	-6	29.6985	114.551	-8	53.7401	138.593	-6	65.7609	150.614	-6	53.7401	138.593	-8	65.7609	150.614	-8	77.7817	162.635	-6	77.7817	162.635	-8	89.8026	174.655	-6	89.8026	174.655	-8	101.823	186.676	-6	101.823	186.676	-8	-33.9411	33.9411	-6	-21.9203	45.9619	-6	-33.9411	33.9411	-8	-21.9203	45.9619	-8	-9.89949	57.9828	-6	-9.89949	57.9828	-8	2.12132	70.0036	-6	2.12132	70.0036	-8	14.1421	82.0244	-6	14.1421	82.0244	-8	26.163	94.0452	-6	26.163	94.0452	-8	86.267	154.149	-6	98.2878	166.17	-6	86.267	154.149	-8	98.2878	166.17	-8	110.309	178.191	-6	110.309	178.191	-8	-25.4558	25.4558	-6	-13.435	37.4767	-6	-25.4558	25.4558	-8	-13.435	37.4767	-8	-1.41421	49.4975	-6	-1.41421	49.4975	-8	10.6066	61.5183	-6	10.6066	61.5183	-8	22.6274	73.5391	-6	22.6274	73.5391	-8	34.6482	85.5599	-6	34.6482	85.5599	-8	38.1838	106.066	-6	46.669	97.5807	-6	38.1838	106.066	-8	46.669	97.5807	-8	94.7523	145.664	-6	106.773	157.685	-6	94.7523	145.664	-8	106.773	157.685	-8	118.794	169.706	-6	118.794	169.706	-8	-16.9706	16.9706	-6	-4.94975	28.9914	-6	-16.9706	16.9706	-8	-4.94975	28.9914	-8	7.07107	41.0122	-6	7.07107	41.0122	-8	19.0919	53.033	-6	19.0919	53.033	-8	31.1127	65.0538	-6	31.1127	65.0538	-8	43.1335	77.0746	-6	43.1335	77.0746	-8	55.1543	89.0955	-6	55.1543	89.0955	-8	58.6899	109.602	-6	67.1751	101.116	-6	58.6899	109.602	-8	67.1751	101.116	-8	82.7315	133.643	-6	91.2168	125.158	-6	103.238	137.179	-6	82.7315	133.643	-8	91.2168	125.158	-8	103.238	137.179	-8	115.258	149.2	-6	115.258	149.2	-8	127.279	161.22	-6	127.279	161.22	-8	-8.48528	8.48528	-6	3.53553	20.5061	-6	-8.48528	8.48528	-8	3.53553	20.5061	-8	15.5563	32.5269	-6	15.5563	32.5269	-8	27.5772	44.5477	-6	27.5772	44.5477	-8	39.598	56.5685	-6	39.598	56.5685	-8	51.6188	68.5894	-6	51.6188	68.5894	-8	63.6396	80.6102	-6	63.6396	80.6102	-8	75.6604	92.631	-6	75.6604	92.631	-8	79.196	113.137	-6	87.6812	104.652	-6	79.196	113.137	-8	87.6812	104.652	-8	99.7021	116.673	-6	99.7021	116.673	-8	111.723	128.693	-6	111.723	128.693	-8	123.744	140.714	-6	123.744	140.714	-8	135.765	152.735	-6	135.765	152.735	-8	0	0	-6	12.0208	12.0208	-6	0	0	-8	12.0208	12.0208	-8	24.0416	24.0416	-6	24.0416	24.0416	-8	36.0624	36.0624	-6	36.0624	36.0624	-8	48.0833	48.0833	-6	48.0833	48.0833	-8	60.1041	60.1041	-6	60.1041	60.1041	-8	72.1249	72.1249	-6	72.1249	72.1249	-8	84.1457	84.1457	-6	84.1457	84.1457	-8	96.1665	96.1665	-6	96.1665	96.1665	-8	108.187	108.187	-6	108.187	108.187	-8	120.208	120.208	-6	120.208	120.208	-8	132.229	132.229	-6	132.229	132.229	-8	144.25	144.25	-6	144.25	144.25	-8	-67.8822	67.8823	-10.3333	-59.397	59.397	-10.3333	-55.8614	79.9031	-10.3333	-47.3762	71.4178	-10.3333	-43.8406	91.9239	-10.3333	-35.3553	83.4386	-10.3333	-31.8198	103.945	-10.3333	-23.3345	95.4594	-10.3333	-19.799	115.966	-10.3333	-11.3137	107.48	-10.3333	-7.77817	127.986	-10.3333	0.707108	119.501	-10.3333	4.24264	140.007	-10.3333	12.7279	131.522	-10.3333	16.2635	152.028	-10.3333	24.7487	143.543	-10.3333	28.2843	164.049	-10.3333	36.7696	155.563	-10.3333	40.3051	176.07	-10.3333	48.7904	167.584	-10.3333	52.3259	188.09	-10.3333	60.8112	179.605	-10.3333	64.3467	200.111	-10.3333	72.832	191.626	-10.3333	76.3675	212.132	-10.3333	84.8528	203.647	-10.3333	-50.9117	50.9117	-10.3333	-38.8909	62.9325	-10.3333	-26.8701	74.9533	-10.3333	-14.8492	86.9741	-10.3333	-2.82843	98.9949	-10.3333	9.19239	111.016	-10.3333	21.2132	123.037	-10.3333	33.234	135.057	-10.3333	45.2548	147.078	-10.3333	57.2757	159.099	-10.3333	69.2965	171.12	-10.3333	81.3173	183.141	-10.3333	93.3381	195.161	-10.3333	-42.4264	42.4264	-10.3333	-30.4056	54.4472	-10.3333	-18.3848	66.468	-10.3333	-6.36396	78.4889	-10.3333	5.65686	90.5097	-10.3333	17.6777	102.53	-10.3333	29.6985	114.551	-10.3333	53.7401	138.593	-10.3333	65.7609	150.614	-10.3333	77.7817	162.635	-10.3333	89.8026	174.655	-10.3333	101.823	186.676	-10.3333	-33.9411	33.9411	-10.3333	-21.9203	45.9619	-10.3333	-9.89949	57.9828	-10.3333	2.12132	70.0036	-10.3333	14.1421	82.0244	-10.3333	26.163	94.0452	-10.3333	86.267	154.149	-10.3333	98.2878	166.17	-10.3333	110.309	178.191	-10.3333	-25.4558	25.4558	-10.3333	-13.435	37.4767	-10.3333	-1.41421	49.4975	-10.3333	10.6066	61.5183	-10.3333	22.6274	73.5391	-10.3333	34.6482	85.5599	-10.3333	38.1838	106.066	-10.3333	46.669	97.5807	-10.3333	94.7523	145.664	-10.3333	106.773	157.685	-10.3333	118.794	169.706	-10.3333	-16.9706	16.9706	-10.3333	-4.94975	28.9914	-10.3333	7.07107	41.0122	-10.3333	19.0919	53.033	-10.3333	31.1127	65.0538	-10.3333	43.1335	77.0746	-10.3333	55.1543	89.0955	-10.3333	58.6899	109.602	-10.3333	67.1751	101.116	-10.3333	82.7315	133.643	-10.3333	91.2168	125.158	-10.3333	103.238	137.179	-10.3333	115.258	149.2	-10.3333	127.279	161.22	-10.3333	-8.48528	8.48528	-10.3333	3.53553	20.5061	-10.3333	15.5563	32.5269	-10.3333	27.5772	44.5477	-10.3333	39.598	56.5685	-10.3333	51.6188	68.5894	-10.3333	63.6396	80.6102	-10.3333	75.6604	92.631	-10.3333	79.196	113.137	-10.3333	87.6812	104.652	-10.3333	99.7021	116.673	-10.3333	111.723	128.693	-10.3333	123.744	140.714	-10.3333	135.765	152.735	-10.3333	0	0	-10.3333	12.0208	12.0208	-10.3333	24.0416	24.0416	-10.3333	36.0624	36.0624	-10.3333	48.0833	48.0833	-10.3333	60.1041	60.1041	-10.3333	72.1249	72.1249	-10.3333	84.1457	84.1457	-10.3333	96.1665	96.1665	-10.3333	108.187	108.187	-10.3333	120.208	120.208	-10.3333	132.229	132.229	-10.3333	144.25	144.25	-10.3333	-67.8822	67.8823	-12.6667	-59.397	59.397	-12.6667	-55.8614	79.9031	-12.6667	-47.3762	71.4178	-12.6667	-43.8406	91.9239	-12.6667	-35.3553	83.4386	-12.6667	-31.8198	103.945	-12.6667	-23.3345	95.4594	-12.6667	-19.799	115.966	-12.6667	-11.3137	107.48	-12.6667	-7.77817	127.986	-12.6667	0.707108	119.501	-12.6667	4.24264	140.007	-12.6667	12.7279	131.522	-12.6667	16.2635	152.028	-12.6667	24.7487	143.543	-12.6667	28.2843	164.049	-12.6667	36.7696	155.563	-12.6667	40.3051	176.07	-12.6667	48.7904	167.584	-12.6667	52.3259	188.09	-12.6667	60.8112	179.605	-12.6667	64.3467	200.111	-12.6667	72.832	191.626	-12.6667	76.3675	212.132	-12.6667	84.8528	203.647	-12.6667	-50.9117	50.9117	-12.6667	-38.8909	62.9325	-12.6667	-26.8701	74.9533	-12.6667	-14.8492	86.9741	-12.6667	-2.82843	98.9949	-12.6667	9.19239	111.016	-12.6667	21.2132	123.037	-12.6667	33.234	135.057	-12.6667	45.2548	147.078	-12.6667	57.2757	159.099	-12.6667	69.2965	171.12	-12.6667	81.3173	183.141	-12.6667	93.3381	195.161	-12.6667	-42.4264	42.4264	-12.6667	-30.4056	54.4472	-12.6667	-18.3848	66.468	-12.6667	-6.36396	78.4889	-12.6667	5.65686	90.5097	-12.6667	17.6777	102.53	-12.6667	29.6985	114.551	-12.6667	41.7193	126.572	-10.3333	41.7193	126.572	-12.6667	53.7401	138.593	-12.6667	65.7609	150.614	-12.6667	77.7817	162.635	-12.6667	89.8026	174.655	-12.6667	101.823	186.676	-12.6667	-33.9411	33.9411	-12.6667	-21.9203	45.9619	-12.6667	-9.89949	57.9828	-12.6667	2.12132	70.0036	-12.6667	14.1421	82.0244	-12.6667	26.163	94.0452	-12.6667	74.2462	142.128	-10.3333	74.2462	142.128	-12.6667	86.267	154.149	-12.6667	98.2878	166.17	-12.6667	110.309	178.191	-12.6667	-25.4558	25.4558	-12.6667	-13.435	37.4767	-12.6667	-1.41421	49.4975	-12.6667	10.6066	61.5183	-12.6667	22.6274	73.5391	-12.6667	34.6482	85.5599	-12.6667	38.1838	106.066	-12.6667	46.669	97.5807	-12.6667	94.7523	145.664	-12.6667	106.773	157.685	-12.6667	118.794	169.706	-12.6667	-16.9706	16.9706	-12.6667	-4.94975	28.9914	-12.6667	7.07107	41.0122	-12.6667	19.0919	53.033	-12.6667	31.1127	65.0538	-12.6667	43.1335	77.0746	-12.6667	55.1543	89.0955	-12.6667	58.6899	109.602	-12.6667	67.1751	101.116	-12.6667	82.7315	133.643	-12.6667	91.2168	125.158	-12.6667	103.238	137.179	-12.6667	115.258	149.2	-12.6667	127.279	161.22	-12.6667	-8.48528	8.48528	-12.6667	3.53553	20.5061	-12.6667	15.5563	32.5269	-12.6667	27.5772	44.5477	-12.6667	39.598	56.5685	-12.6667	51.6188	68.5894	-12.6667	63.6396	80.6102	-12.6667	75.6604	92.631	-12.6667	79.196	113.137	-12.6667	87.6812	104.652	-12.6667	99.7021	116.673	-12.6667	111.723	128.693	-12.6667	123.744	140.714	-12.6667	135.765	152.735	-12.6667	0	0	-12.6667	12.0208	12.0208	-12.6667	24.0416	24.0416	-12.6667	36.0624	36.0624	-12.6667	48.0833	48.0833	-12.6667	60.1041	60.1041	-1
[...]
<CellData Scalars="scalars">
<DataArray type="Int32" Name="nodeid" format="ascii">1	2	3	4	5	6	7	8	9	10	11	12	13	14	15	16	17	18	19	20	21	22	23	24	25	26	27	28	29	30	385	386	388	387	389	390	392	391	33	34	35	36	37	38	39	40	41	393	394	396	395	401	402	405	406	408	407	403	409	410	412	413	414	416	415	437	438	440	439	434	445	446	448	447	441	442	444	443	449	450	457	458	460	459	453	454	456	455	473	474	476	475	477	478	480	479	485	486	488	487	481	482	484	483	461	465	466	468	467	464	463	417	421	425	426	428	427	424	423	420	419	493	494	496	495	490	553	554	569	570	577	578	580	579	573	574	576	575	557	558	565	566	568	567	561	562	564	563	501	502	504	505	506	508	507	509	510	512	511	537	538	540	539	541	542	544	543	549	550	552	551	545	546	548	547	517	518	520	519	521	522	524	523	529	530	532	531	525	526	528	527	581	582	597	598	600	599	585	586	593	594	596	595	589	590	592	591	601	602	604	603	47	48	49	50	51	52	53	54	605	609	613	614	616	615	612	611	608	607	629	630	632	631	633	634	636	635	637	638	640	639	627	645	646	648	647	649	650	652	651	657	658	660	659	653	654	656	655	665	669	670	672	671	668	667	661	662	664	663	681	682	684	683	685	686	688	687	693	694	696	695	689	690	692	691	701	702	704	703	705	706	708	707	713	714	716	715	709	710	712	711	741	742	744	743	745	746	748	747	753	754	756	755	749	750	752	751	721	722	724	723	725	726	728	727	733	734	736	735	729	730	732	731	765	769	770	772	771	768	767	777	778	780	779	781	782	784	783	785	786	788	787	775	789	790	792	791	763	757	758	760	759	805	806	808	807	809	810	812	811	817	818	820	819	813	814	816	815	825	826	828	827	822	833	834	836	835	829	830	832	831	861	862	864	863	865	866	868	867	873	874	876	875	869	870	872	871	841	842	844	843	845	846	848	847	853	854	856	855	849	850	852	851	881	882	884	885	886	888	887	878	880	889	890	892	891	933	934	936	935	901	902	904	903	905	906	908	907	913	914	916	915	909	910	912	911	921	922	924	923	918	920	919	896	929	930	932	931	926	928	927	937	938	940	939	59	60	61	62	63	64	65	66	67	941	945	946	948	947	944	943	953	954	956	955	950	952	951	70	71	72	73	74	75	76	77	78	79	80	81	82	83	84	85	86	87	88	89	90	91	92	93	94	95	96	97	98	99	100	101	102	103	104	105	106	107	108	109	110	111	112	113	114	115	116	117	118	119	120	121	122	123	124	125	126	957	958	960	959	961	962	964	963	129	130	131	132	133	134	135	136	137	965	966	968	967	973	974	976	975	977	978	980	979	993	994	996	995	997	998	1000	999	1005	1006	1008	1007	1001	1002	1004	1003	981	985	986	988	987	984	983	1013	1014	1016	1015	1010	1033	1034	1041	1042	1044	1043	1037	1038	1040	1039	1021	1022	1024	1023	1018	1029	1030	1032	1031	1025	1026	1028	1027	1045	1046	1053	1054	1056	1055	1049	1050	1052	1051	1057	1058	1060	1059	143	144	145	146	147	148	149	150	1061	1065	1066	1068	1067	1064	1063	1077	1078	1080	1079	1081	1082	1084	1083	1085	1086	1088	1087	1075	1093	1094	1096	1095	1097	1098	1100	1099	1105	1106	1108	1107	1101	1102	1104	1103	1117	1118	1120	1119	1121	1122	1124	1123	1116	1115	1109	1110	1112	1111	1133	1134	1136	1135	1137	1138	1140	1139	1145	1146	1148	1147	1141	1142	1144	1143	1153	1154	1156	1155	1150	1152	1151	1173	1174	1176	1175	1161	1162	1164	1163	1165	1166	1168	1167	1160	1169	1170	1172	1171	1177	1178	1180	1179	155	156	157	158	159	160	161	162	163	1181	1182	1184	1183	1189	1190	1192	1191	1186	1188	1187	166	167	168	169	170	171	172	173	174	175	176	177	178	179	180	181	182	183	184	185	186	187	188	189	190	191	192	193	194	195	196	197	198	199	200	201	202	203	204	205	206	207	208	209	210	211	212	213	214	215	216	217	218	219	220	221	222	223	224	225	226	227	228	229	230	231	232	233	1193	1194	1196	1195	1197	1198	1205	1206	1208	1207	1201	1202	1204	1203	1209	1210	1217	1218	1220	1219	1213	1214	1216	1215	1221	1222	1224	1223	238	239	240	241	242	243	244	245	246	1225	1226	1228	1227	1233	1234	1236	1235	1237	1238	1240	1239	1241	1242	1244	1243	1231	1249	1250	1252	1251	1253	1254	1256	1255	1248	1257	1258	1260	1259	1261	1262	1264	1263	251	252	253	254	255	256	257	258	259	1265	1266	1268	1267	1269	1270	1272	1271	262	263	264	265	266	267	268	269	270	271	272	273	274	275	276	277	278	279	280	281	282	283	284	285	286	287	288	289	290	291	292	293	294	295	296	297	298	299	300	301	302	303	304	305	306	307	308	309	310	311	312	313	314	315	316	317	318	319	320	321	322	323	324	325	326	327	328	329	330	1273	1274	1276	1275	1277	1278	1280	1279	333	334	335	336	337	338	339	340	341	342	343	1281	1282	1284	1283	1285	1286	1288	1287	346	347	348	349	350	351	352	353	354	355	356	357	358	359	360	361	362	363	364	365	366	367	368	369	370	371	372	373	374	375	376	377	378	379	380	381	382	383	384	</DataArray>
<DataArray type="Int32" Name="nodenumber" format="ascii">1	2	3	4	5	6	7	8	9	10	11	12	13	14	15	16	17	18	19	20	21	22	23	24	25	26	27	28	29	30	31	32	34	33	35	36	38	37	39	40	41	42	43	44	45	46	47	48	49	51	50	52	53	55	56	58	57	54	59	60	65	61	62	64	63	76	77	79	78	80	85	86	88	87	81	82	84	83	89	90	95	96	98	97	91	92	94	93	106	107	109	108	110	111	113	112	118	119	121	120	114	115	117	116	99	100	101	103	102	105	104	66	67	68	69	71	70	73	72	75	74	122	123	125	124	126	170	171	182	183	188	189	191	190	184	185	187	186	172	173	178	179	181	180	174	175	177	176	127	128	133	129	130	132	131	134	135	137	136	154	155	157	156	158	159	161	160	166	167	169	168	162	163	165	164	138	139	141	140	142	143	145	144	150	151	153	152	146	147	149	148	192	193	204	205	207	206	194	195	200	201	203	202	196	197	199	198	208	209	211	210	212	213	214	215	216	217	218	219	220	221	222	223	225	224	227	226	229	228	230	231	233	232	234	235	237	236	239	240	242	241	238	243	244	246	245	247	248	250	249	255	256	258	257	251	252	254	253	263	264	265	267	266	269	268	259	260	262	261	270	271	273	272	274	275	277	276	282	283	285	284	278	279	281	280	286	287	289	288	290	291	293	292	298	299	301	300	294	295	297	296	318	319	321	320	322	323	325	324	330	331	333	332	326	327	329	328	302	303	305	304	306	307	309	308	314	315	317	316	310	311	313	312	338	339	340	342	341	344	343	345	346	348	347	349	350	352	351	354	355	357	356	353	359	360	362	361	358	334	335	337	336	363	364	366	365	367	368	370	369	375	376	378	377	371	372	374	373	379	380	382	381	383	388	389	391	390	384	385	387	386	408	409	411	410	412	413	415	414	420	421	423	422	416	417	419	418	392	393	395	394	396	397	399	398	404	405	407	406	400	401	403	402	424	425	430	426	427	429	428	431	436	432	433	435	434	468	469	471	470	437	438	440	439	441	442	444	443	449	450	452	451	445	446	448	447	453	454	456	455	457	459	458	467	460	461	463	462	464	466	465	472	473	475	474	476	477	478	479	480	481	482	483	484	485	486	487	489	488	491	490	492	493	495	494	496	498	497	499	500	501	502	503	504	505	506	507	508	509	510	511	512	513	514	515	516	517	518	519	520	521	522	523	524	525	526	527	528	529	530	531	532	533	534	535	536	537	538	539	540	541	542	543	544	545	546	547	548	549	550	551	552	553	554	555	556	557	559	558	560	561	563	562	564	565	566	567	568	569	570	571	572	573	574	576	575	577	578	580	579	581	582	584	583	592	593	595	594	596	597	599	598	604	605	607	606	600	601	603	602	585	586	587	589	588	591	590	608	609	611	610	612	626	627	632	633	635	634	628	629	631	630	613	614	616	615	617	622	623	625	624	618	619	621	620	636	637	642	643	645	644	638	639	641	640	646	647	649	648	650	651	652	653	654	655	656	657	658	659	660	662	661	664	663	665	666	668	667	669	670	672	671	674	675	677	676	673	678	679	681	680	682	683	685	684	690	691	693	692	686	687	689	688	698	699	701	700	702	703	705	704	707	706	694	695	697	696	708	709	711	710	712	713	715	714	720	721	723	722	716	717	719	718	724	725	727	726	728	730	729	744	745	747	746	731	732	734	733	735	736	738	737	743	739	740	742	741	748	749	751	750	752	753	754	755	756	757	758	759	760	761	762	764	763	765	766	768	767	769	771	770	772	773	774	775	776	777	778	779	780	781	782	783	784	785	786	787	788	789	790	791	792	793	794	795	796	797	798	799	800	801	802	803	804	805	806	807	808	809	810	811	812	813	814	815	816	817	818	819	820	821	822	823	824	825	826	827	828	829	830	831	832	833	834	835	836	837	838	839	840	841	843	842	844	845	850	851	853	852	846	847	849	848	854	855	860	861	863	862	856	857	859	858	864	865	867	866	868	869	870	871	872	873	874	875	876	877	878	880	879	881	882	884	883	885	886	888	887	890	891	893	892	889	894	895	897	896	898	899	901	900	906	902	903	905	904	907	908	910	909	911	912	913	914	915	916	917	918	919	920	921	923	922	924	925	927	926	928	929	930	931	932	933	934	935	936	937	938	939	940	941	942	943	944	945	946	947	948	949	950	951	952	953	954	955	956	957	958	959	960	961	962	963	964	965	966	967	968	969	970	971	972	973	974	975	976	977	978	979	980	981	982	983	984	985	986	987	988	989	990	991	992	993	994	995	996	997	998	1000	999	1001	1002	1004	1003	1005	1006	1007	1008	1009	1010	1011	1012	1013	1014	1015	1016	1017	1019	1018	1020	1021	1023	1022	1024	1025	1026	1027	1028	1029	1030	1031	1032	1033	1034	1035	1036	1037	1038	1039	1040	1041	1042	1043	1044	1045	1046	1047	1048	1049	1050	1051	1052	1053	1054	1055	1056	1057	1058	1059	1060	1061	1062	</DataArray>
<DataArray type="Int32" Name="layer" format="ascii">1	1	1	1	1	1	1	1	1	1	1	1	1	1	1	1	1	1	1	1	1	1	1	1	1	1	1	1	1	1	1	1	1	1	1	1	1	1	1	1	1	1	1	1	1	1	1	1	1	1	1	1	1	1	1	1	1	1	1	1	1	1	1	1	1	1	1	1	1	1	1	1	1	1	1	1	1	1	1	1	1	1	1	1	1	1	1	1	1	1	1	1	1	1	1	1	1	1	1	1	1	1	1	1	1	1	1	1	1	1	1	1	1	1	1	1	1	1	1	1	1	1	1	1	1	1	1	1	1	1	1	1	1	1	1	1	1	1	1	1	1	1	1	1	1	1	1	1	1	1	1	1	1	1	1	1	1	1	1	1	1	1	1	1	1	1	1	1	1	1	1	1	1	1	1	1	1	1	1	1	1	1	1	1	1	1	1	1	1	1	1	1	1	1	1	1	1	1	1	1	1	1	1	1	1	1	1	1	1	1	1	1	1	1	1	1	1	1	1	1	1	1	1	1	1	1	1	1	1	1	1	1	1	1	1	1	1	1	1	1	1	1	1	1	1	1	1	1	1	1	1	1	1	1	1	1	1	1	1	1	1	1	1	1	1	1	1	1	1	1	1	1	1	1	1	1	1	1	1	1	1	1	1	1	1	1	1	1	1	1	1	1	1	1	1	1	1	1	1	1	1	1	1	1	1	1	1	1	1	1	1	1	1	1	1	1	1	1	1	1	1	1	1	1	1	1	1	1	1	1	1	1	1	1	1	1	1	1	1	1	1	1	1	1	1	1	1	1	1	1	1	1	1	1	1	1	1	1	1	1	1	1	1	1	1	1	1	1	1	1	1	1	1	1	1	1	1	1	1	1	1	1	1	1	1	1	1	1	1	1	1	1	1	1	1	1	1	1	1	1	1	1	1	1	1	1	1	1	1	1	1	1	1	1	1	1	1	1	1	1	1	1	1	1	1	1	1	1	1	1	1	1	1	1	1	1	1	1	1	1	1	1	1	1	1	1	1	1	1	1	1	1	1	1	1	1	1	1	1	1	1	1	1	1	1	1	1	1	1	1	1	1	1	1	1	1	1	1	1	1	1	1	1	1	1	1	1	1	1	1	1	1	1	1	1	1	1	1	1	1	1	1	1	1	1	1	1	1	1	1	1	1	1	1	1	1	1	1	1	1	1	1	1	1	1	2	2	2	2	2	2	2	2	2	2	2	2	2	2	2	2	2	2	2	2	2	2	2	2	2	2	2	2	2	2	2	2	2	2	2	2	2	2	2	2	2	2	2	2	2	2	2	2	2	2	2	2	2	2	2	2	2	2	2	2	2	2	2	2	2	2	2	2	2	2	2	2	2	2	2	2	2	2	2	2	2	2	2	2	2	2	2	2	2	2	2	2	2	2	2	2	2	2	2	2	2	2	2	2	2	2	2	2	2	2	2	2	2	2	2	2	2	2	2	2	2	2	2	2	2	2	2	2	2	2	2	2	2	2	2	2	2	2	2	2	2	2	2	2	2	2	2	2	2	2	2	2	2	2	2	2	2	2	2	2	2	2	2	2	2	2	2	2	2	2	2	2	2	2	2	2	2	2	2	2	2	2	2	2	2	2	2	2	2	2	2	2	2	2	2	2	2	2	2	2	2	2	2	2	2	2	2	2	2	2	2	2	2	2	2	2	2	2	2	2	2	2	2	2	2	2	2	2	2	2	2	2	2	2	2	2	2	2	2	2	2	2	2	2	2	2	2	2	2	2	2	2	2	2	2	2	2	2	2	2	2	2	2	2	2	2	2	2	2	2	2	2	2	3	3	3	3	3	3	3	3	3	3	3	3	3	3	3	3	3	3	3	3	3	3	3	3	3	3	3	3	3	3	3	3	3	3	3	3	3	3	3	3	3	3	3	3	3	3	3	3	3	3	3	3	3	3	3	3	3	3	3	3	3	3	3	3	3	3	3	3	3	3	3	3	3	3	3	3	3	3	3	3	3	3	3	3	3	3	3	3	3	3	3	3	3	3	3	3	3	3	3	3	3	3	3	3	3	3	3	3	3	3	3	3	3	3	3	3	3	3	3	3	3	3	3	3	3	3	3	3	3	3	3	3	3	3	3	3	3	3	3	3	3	3	3	3	3	3	3	3	3	3	3	3	3	3	3	3	4	4	4	4	4	4	4	4	4	4	4	4	4	4	4	4	4	4	4	4	4	4	4	4	4	4	4	4	4	4	4	4	4	4	4	4	4	4	4	4	4	4	4	4	4	4	4	4	4	4	4	4	4	4	4	4	4	4	4	4	4	4	4	4	4	4	4	4	4	4	4	4	4	4	4	4	4	4	4	4	4	4	4	4	4	4	4	4	4	4	4	4	4	4	4	4	4	4	4	4	4	4	4	4	4	4	4	4	</DataArray>
<DataArray type="Int32" Name="row" format="ascii">1	1	1	1	1	1	1	1	1	1	1	1	2	2	2	2	2	2	2	2	2	2	2	2	3	3	3	3	3	3	3	3	3	3	3	3	3	3	3	3	3	3	4	4	4	4	4	4	4	4	4	4	4	4	4	4	4	4	4	4	4	4	4	4	4	4	4	4	4	4	4	4	4	4	4	4	4	4	4	4	4	4	4	4	4	4	4	4	4	4	4	4	4	4	4	4	4	4	4	4	4	4	4	4	4	4	4	4	4	4	4	4	4	4	4	4	4	4	4	4	4	4	4	4	4	4	4	4	4	4	4	4	4	4	4	4	4	4	4	4	4	4	4	4	4	4	4	4	4	4	4	4	4	4	4	4	4	4	4	4	4	4	4	4	4	4	4	4	4	4	4	4	4	4	4	4	4	4	4	4	4	4	4	4	4	4	4	4	4	4	4	4	4	4	4	4	4	4	4	4	4	4	4	4	4	4	4	4	4	4	4	4	4	5	5	5	5	5	5	5	5	5	5	5	5	5	5	5	5	5	5	5	5	5	5	5	5	5	5	5	5	5	5	5	5	5	5	5	5	5	5	5	5	5	5	5	5	5	5	5	5	5	5	5	5	5	5	5	5	5	5	5	5	5	5	5	5	5	5	5	5	5	5	5	5	5	5	5	5	5	5	5	5	5	5	5	5	5	5	5	5	5	5	5	5	5	5	5	5	5	5	5	5	5	5	5	5	5	5	5	5	5	5	5	5	5	5	5	5	5	5	5	5	5	5	5	5	5	5	5	5	5	5	5	5	5	5	5	5	5	5	5	5	5	5	5	5	5	5	5	5	5	5	5	5	5	5	5	5	5	5	5	5	5	5	5	5	5	5	5	5	5	5	5	5	5	5	5	5	5	5	5	5	5	5	5	5	5	5	5	5	5	5	5	5	5	5	5	5	5	5	5	5	5	5	5	5	5	5	5	5	5	5	5	5	5	5	5	5	5	5	5	5	5	5	5	5	5	5	5	5	5	5	5	5	5	5	5	5	5	5	5	5	5	5	5	5	5	5	5	5	5	5	5	5	5	5	5	5	5	5	5	5	5	5	5	5	6	6	6	6	6	6	6	6	6	6	6	6	6	6	6	6	6	6	6	6	6	6	6	6	7	7	7	7	7	7	7	7	7	7	7	7	8	8	8	8	8	8	8	8	8	8	8	8	1	1	1	1	1	1	1	1	1	1	1	1	2	2	2	2	2	2	2	2	2	2	2	2	3	3	3	3	3	3	3	3	3	3	3	3	3	3	3	3	3	3	4	4	4	4	4	4	4	4	4	4	4	4	4	4	4	4	4	4	4	4	4	4	4	4	4	4	4	4	4	4	4	4	4	4	4	4	4	4	4	4	4	4	4	4	4	4	4	4	4	4	4	4	4	4	4	4	4	4	4	4	4	4	4	4	4	4	4	4	4	4	4	4	4	4	4	4	4	4	4	4	4	4	4	4	5	5	5	5	5	5	5	5	5	5	5	5	5	5	5	5	5	5	5	5	5	5	5	5	5	5	5	5	5	5	5	5	5	5	5	5	5	5	5	5	5	5	5	5	5	5	5	5	5	5	5	5	5	5	5	5	5	5	5	5	5	5	5	5	5	5	5	5	5	5	5	5	5	5	5	5	5	5	5	5	5	5	5	5	5	5	5	5	5	5	5	5	5	5	5	5	5	5	5	5	5	5	6	6	6	6	6	6	6	6	6	6	6	6	6	6	6	6	6	6	6	6	6	7	7	7	7	7	7	7	7	7	7	7	7	8	8	8	8	8	8	8	8	8	8	8	8	1	1	1	1	1	1	1	1	1	1	1	1	2	2	2	2	2	2	2	2	2	2	2	2	3	3	3	3	3	3	3	3	3	3	3	3	4	4	4	4	4	4	4	4	4	4	4	4	4	4	4	4	4	4	4	4	4	4	4	4	4	4	4	4	4	4	4	4	4	4	4	4	5	5	5	5	5	5	5	5	5	5	5	5	5	5	5	5	5	5	5	5	5	5	5	5	5	5	5	5	5	5	5	5	5	5	5	5	5	5	5	5	5	5	6	6	6	6	6	6	6	6	6	6	6	6	6	6	6	6	6	6	7	7	7	7	7	7	7	7	7	7	7	7	8	8	8	8	8	8	8	8	8	8	8	8	1	1	1	1	1	1	1	1	1	1	1	1	2	2	2	2	2	2	2	2	2	2	2	2	3	3	3	3	3	3	3	3	3	3	3	3	4	4	4	4	4	4	4	4	4	4	4	4	4	4	4	4	4	4	5	5	5	5	5	5	5	5	5	5	5	5	5	5	5	5	5	5	6	6	6	6	6	6	6	6	6	6	6	6	7	7	7	7	7	7	7	7	7	7	7	7	8	8	8	8	8	8	8	8	8	8	8	8	</DataArray>
<DataArray type="Int32" Name="col" format="ascii">1	2	3	4	5	6	7	8	9	10	11	12	1	2	3	4	5	6	7	8	9	10	11	12	1	2	3	4	5	6	7	7	7	7	8	8	8	8	9	10	11	12	1	2	3	4	5	6	6	6	6	7	7	7	7	7	7	7	7	7	7	7	7	7	7	7	7	7	7	7	7	7	7	7	7	7	7	7	7	7	7	7	7	7	7	7	7	7	7	7	7	7	7	7	7	7	7	7	7	7	7	7	7	7	7	7	7	7	7	7	7	7	7	7	7	7	7	7	7	7	7	8	8	8	8	8	8	8	8	8	8	8	8	8	8	8	8	8	8	8	8	8	8	8	8	8	8	8	8	8	8	8	8	8	8	8	8	8	8	8	8	8	8	8	8	8	8	8	8	8	8	8	8	8	8	8	8	8	8	8	8	8	8	8	8	8	8	8	8	8	8	9	9	9	9	9	9	9	9	9	9	9	9	9	9	9	9	10	10	10	10	11	12	1	2	3	4	5	6	7	7	7	7	7	7	7	7	7	7	8	8	8	8	8	8	8	8	8	8	8	8	8	8	8	8	8	8	8	8	8	8	8	8	8	8	8	8	8	8	8	8	8	8	8	8	8	8	8	8	8	8	8	8	8	8	8	8	8	8	8	8	8	8	8	8	8	8	8	8	8	8	8	8	8	8	8	8	8	8	8	8	8	8	8	8	8	8	8	8	8	8	8	8	8	8	8	8	8	8	8	8	8	8	8	8	8	8	8	8	8	8	8	8	8	8	8	8	8	8	8	8	8	8	8	8	8	8	8	8	8	8	8	8	8	8	8	8	8	8	8	8	8	9	9	9	9	9	9	9	9	9	9	9	9	9	9	9	9	9	9	9	9	9	9	9	9	9	9	9	9	9	9	9	9	9	9	9	9	9	9	9	9	9	9	9	9	9	9	9	9	9	9	9	9	9	9	9	9	9	9	9	9	9	9	9	9	9	9	9	9	9	9	9	9	9	9	9	9	9	9	9	9	9	9	9	9	9	9	9	9	9	9	9	9	9	9	9	9	9	9	9	9	9	9	9	9	9	9	9	9	9	10	10	10	10	11	12	1	2	3	4	5	6	7	8	8	8	8	8	8	8	9	9	9	9	9	9	9	10	11	12	1	2	3	4	5	6	7	8	9	10	11	12	1	2	3	4	5	6	7	8	9	10	11	12	1	2	3	4	5	6	7	8	9	10	11	12	1	2	3	4	5	6	7	8	9	10	11	12	1	2	3	4	5	6	7	7	7	7	8	8	8	8	9	10	11	12	1	2	3	4	5	6	6	6	6	7	7	7	7	7	7	7	7	7	7	7	7	7	7	7	7	7	7	7	7	7	7	7	7	7	7	7	7	7	7	7	8	8	8	8	8	8	8	8	8	8	8	8	8	8	8	8	8	8	8	8	8	8	8	8	8	8	8	8	9	9	9	9	9	9	9	9	9	9	10	10	10	10	11	12	1	2	3	4	5	6	7	7	7	7	7	7	7	8	8	8	8	8	8	8	8	8	8	8	8	8	8	8	8	8	8	8	8	8	8	8	8	8	8	8	8	8	8	8	8	8	8	8	8	8	8	8	8	8	8	8	9	9	9	9	9	9	9	9	9	9	9	9	9	9	9	9	9	9	9	9	9	9	9	9	9	9	9	9	9	9	9	9	9	9	9	9	9	9	9	9	10	10	10	10	11	12	1	2	3	4	5	6	7	8	8	8	8	9	9	9	9	9	9	9	10	11	12	1	2	3	4	5	6	7	8	9	10	11	12	1	2	3	4	5	6	7	8	9	10	11	12	1	2	3	4	5	6	7	8	9	10	11	12	1	2	3	4	5	6	7	8	9	10	11	12	1	2	3	4	5	6	7	8	9	10	11	12	1	2	3	4	5	6	6	6	6	7	7	7	7	7	7	7	7	7	7	8	8	8	8	8	8	8	8	8	8	9	9	9	9	10	11	12	1	2	3	4	5	6	7	7	7	7	8	8	8	8	8	8	8	8	8	8	8	8	8	9	9	9	9	9	9	9	9	9	9	9	9	9	10	10	10	10	11	12	1	2	3	4	5	6	7	8	8	8	8	9	9	9	9	10	11	12	1	2	3	4	5	6	7	8	9	10	11	12	1	2	3	4	5	6	7	8	9	10	11	12	1	2	3	4	5	6	7	8	9	10	11	12	1	2	3	4	5	6	7	8	9	10	11	12	1	2	3	4	5	6	7	8	9	10	11	12	1	2	3	4	5	6	7	7	7	7	8	8	8	8	9	10	11	12	1	2	3	4	5	6	7	8	8	8	8	9	9	9	9	10	11	12	1	2	3	4	5	6	7	8	9	10	11	12	1	2	3	4	5	6	7	8	9	10	11	12	1	2	3	4	5	6	7	8	9	10	11	12	</DataArray>
<DataArray type="Int32" Name="vtkid" format="ascii">0	1	2	3	4	5	6	7	8	9	10	11	12	13	14	15	16	17	18	19	20	21	22	23	24	25	26	27	28	29	30	31	32	33	34	35	36	37	38	39	40	41	42	43	44	45	46	47	48	49	50	51	52	53	54	55	56	57	58	59	60	61	62	63	64	65	66	67	68	69	70	71	72	73	74	75	76	77	78	79	80	81	82	83	84	85	86	87	88	89	90	91	92	93	94	95	96	97	98	99	100	101	102	103	104	105	106	107	108	109	110	111	112	113	114	115	116	117	118	119	120	121	122	123	124	125	126	127	128	129	130	131	132	133	134	135	136	137	138	139	140	141	142	143	144	145	146	147	148	149	150	151	152	153	154	155	156	157	158	159	160	161	162	163	164	165	166	167	168	169	170	171	172	173	174	175	176	177	178	179	180	181	182	183	184	185	186	187	188	189	190	191	192	193	194	195	196	197	198	199	200	201	202	203	204	205	206	207	208	209	210	211	212	213	214	215	216	217	218	219	220	221	222	223	224	225	226	227	228	229	230	231	232	233	234	235	236	237	238	239	240	241	242	243	244	245	246	247	248	249	250	251	252	253	254	255	256	257	258	259	260	261	262	263	264	265	266	267	268	269	270	271	272	273	274	275	276	277	278	279	280	281	282	283	284	285	286	287	288	289	290	291	292	293	294	295	296	297	298	299	300	301	302	303	304	305	306	307	308	309	310	311	312	313	314	315	316	317	318	319	320	321	322	323	324	325	326	327	328	329	330	331	332	333	334	335	336	337	338	339	340	341	342	343	344	345	346	347	348	349	350	351	352	353	354	355	356	357	358	359	360	361	362	363	364	365	366	367	368	369	370	371	372	373	374	375	376	377	378	379	380	381	382	383	384	385	386	387	388	389	390	391	392	393	394	395	396	397	398	399	400	401	402	403	404	405	406	407	408	409	410	411	412	413	414	415	416	417	418	419	420	421	422	423	424	425	426	427	428	429	430	431	432	433	434	435	436	437	438	439	440	441	442	443	444	445	446	447	448	449	450	451	452	453	454	455	456	457	458	459	460	461	462	463	464	465	466	467	468	469	470	471	472	473	474	475	476	477	478	479	480	481	482	483	484	485	486	487	488	489	490	491	492	493	494	495	496	497	498	499	500	501	502	503	504	505	506	507	508	509	510	511	512	513	514	515	516	517	518	519	520	521	522	523	524	525	526	527	528	529	530	531	532	533	534	535	536	537	538	539	540	541	542	543	544	545	546	547	548	549	550	551	552	553	554	555	556	557	558	559	560	561	562	563	564	565	566	567	568	569	570	571	572	573	574	575	576	577	578	579	580	581	582	583	584	585	586	587	588	589	590	591	592	593	594	595	596	597	598	599	600	601	602	603	604	605	606	607	608	609	610	611	612	613	614	615	616	617	618	619	620	621	622	623	624	625	626	627	628	629	630	631	632	633	634	635	636	637	638	639	640	641	642	643	644	645	646	647	648	649	650	651	652	653	654	655	656	657	658	659	660	661	662	663	664	665	666	667	668	669	670	671	672	673	674	675	676	677	678	679	680	681	682	683	684	685	686	687	688	689	690	691	692	693	694	695	696	697	698	699	700	701	702	703	704	705	706	707	708	709	710	711	712	713	714	715	716	717	718	719	720	721	722	723	724	725	726	727	728	729	730	731	732	733	734	735	736	737	738	739	740	741	742	743	744	745	746	747	748	749	750	751	752	753	754	755	756	757	758	759	760	761	762	763	764	765	766	767	768	769	770	771	772	773	774	775	776	777	778	779	780	781	782	783	784	785	786	787	788	789	790	791	792	793	794	795	796	797	798	799	800	801	802	803	804	805	806	807	808	809	810	811	812	813	814	815	816	817	818	819	820	821	822	823	824	825	826	827	828	829	830	831	832	833	834	835	836	837	838	839	840	841	842	843	844	845	846	847	848	849	850	851	852	853	854	855	856	857	858	859	860	861	862	863	864	865	866	867	868	869	870	871	872	873	874	875	876	877	878	879	880	881	882	883	884	885	886	887	888	889	890	891	892	893	894	895	896	897	898	899	900	901	902	903	904	905	906	907	908	909	910	911	912	913	914	915	916	917	918	919	920	921	922	923	924	925	926	927	928	929	930	931	932	933	934	935	936	937	938	939	940	941	942	943	944	945	946	947	948	949	950	951	952	953	954	955	956	957	958	959	960	961	962	963	964	965	966	967	968	969	970	971	972	973	974	975	976	977	978	979	980	981	982	983	984	985	986	987	988	989	990	991	992	993	994	995	996	997	998	999	1000	1001	1002	1003	1004	1005	1006	1007	1008	1009	1010	1011	1012	1013	1014	1015	1016	1017	1018	1019	1020	1021	1022	1023	1024	1025	1026	1027	1028	1029	1030	1031	1032	1033	1034	1035	1036	1037	1038	1039	1040	1041	1042	1043	1044	1045	1046	1047	1048	1049	1050	1051	1052	1053	1054	1055	1056	1057	1058	1059	1060	1061	</DataArray>