<?xml version="1.0"?>
<VTKFile type="UnstructuredGrid" version="0.1" byte_order="BigEndian">
<UnstructuredGrid GhostLevel="0">
<Piece NumberOfPoints="4739" NumberOfCells="3600" ><Points>
<DataArray type="Float32" NumberOfComponents="3" format="ascii">
-48	83.1384	-6	-45	77.9423	-6	-40.6388	87.3884	-6	-37.6388	82.1923	-6	-48	83.1384	-6.5	-45	77.9423	-6.5	-40.6388	87.3884	-6.5	-37.6388	82.1923	-6.5	-33.2776	91.6384	-6	-30.2776	86.4423	-6	-33.2776	91.6384	-6.5	-30.2776	86.4423	-6.5	-25.9164	95.8884	-6	-22.9164	90.6923	-6	-25.9164	95.8884	-6.5	-22.9164	90.6923	-6.5	-18.5551	100.138	-6	-15.5551	94.9423	-6	-18.5551	100.138	-6.5	-15.5551	94.9423	-6.5	-11.1939	104.388	-6	-8.19392	99.1923	-6	-11.1939	104.388	-6.5	-8.19392	99.1923	-6.5	-3.8327	108.638	-6	-0.832703	103.442	-6	-3.8327	108.638	-6.5	-0.832703	103.442	-6.5	3.52851	112.888	-6	6.52851	107.692	-6	3.52851	112.888	-6.5	6.52851	107.692	-6.5	10.8897	117.138	-6	13.8897	111.942	-6	10.8897	117.138	-6.5	13.8897	111.942	-6.5	18.2509	121.388	-6	21.2509	116.192	-6	18.2509	121.388	-6.5	21.2509	116.192	-6.5	25.6122	125.638	-6	28.6122	120.442	-6	25.6122	125.638	-6.5	28.6122	120.442	-6.5	32.9734	129.888	-6	35.9734	124.692	-6	32.9734	129.888	-6.5	35.9734	124.692	-6.5	40.3346	134.138	-6	43.3346	128.942	-6	40.3346	134.138	-6.5	43.3346	128.942	-6.5	47.6958	138.388	-6	50.6958	133.192	-6	47.6958	138.388	-6.5	50.6958	133.192	-6.5	55.057	142.638	-6	58.057	137.442	-6	55.057	142.638	-6.5	58.057	137.442	-6.5	62.4182	146.888	-6	65.4182	141.692	-6	62.4182	146.888	-6.5	65.4182	141.692	-6.5	69.7795	151.138	-6	72.7795	145.942	-6	69.7795	151.138	-6.5	72.7795	145.942	-6.5	77.1407	155.388	-6	80.1407	150.192	-6	77.1407	155.388	-6.5	80.1407	150.192	-6.5	84.5019	159.638	-6	87.5019	154.442	-6	84.5019	159.638	-6.5	87.5019	154.442	-6.5	91.8631	163.888	-6	94.8631	158.692	-6	91.8631	163.888	-6.5	94.8631	158.692	-6.5	99.2243	168.138	-6	102.224	162.942	-6	99.2243	168.138	-6.5	102.224	162.942	-6.5	106.586	172.388	-6	109.586	167.192	-6	106.586	172.388	-6.5	109.586	167.192	-6.5	113.947	176.638	-6	116.947	171.442	-6	113.947	176.638	-6.5	116.947	171.442	-6.5	121.308	180.888	-6	124.308	175.692	-6	121.308	180.888	-6.5	124.308	175.692	-6.5	128.669	185.138	-6	131.669	179.942	-6	128.669	185.138	-6.5	131.669	179.942	-6.5	-42	72.7461	-6	-34.6388	76.9961	-6	-42	72.7461	-6.5	-34.6388	76.9961	-6.5	-27.2776	81.2461	-6	-27.2776	81.2461	-6.5	-19.9164	85.4961	-6	-19.9164	85.4961	-6.5	-12.5551	89.7461	-6	-12.5551	89.7461	-6.5	-5.19392	93.9961	-6	-5.19392	93.9961	-6.5	2.1673	98.2461	-6	2.1673	98.2461	-6.5	9.52851	102.496	-6	9.52851	102.496	-6.5	16.8897	106.746	-6	16.8897	106.746	-6.5	24.2509	110.996	-6	24.2509	110.996	-6.5	31.6122	115.246	-6	31.6122	115.246	-6.5	38.9734	119.496	-6	38.9734	119.496	-6.5	46.3346	123.746	-6	46.3346	123.746	-6.5	53.6958	127.996	-6	53.6958	127.996	-6.5	61.057	132.246	-6	61.057	132.246	-6.5	68.4182	136.496	-6	68.4182	136.496	-6.5	75.7795	140.746	-6	75.7795	140.746	-6.5	83.1407	144.996	-6	83.1407	144.996	-6.5	90.5019	149.246	-6	90.5019	149.246	-6.5	97.8631	153.496	-6	97.8631	153.496	-6.5	105.224	157.746	-6	105.224	157.746	-6.5	112.586	161.996	-6	112.586	161.996	-6.5	119.947	166.246	-6	119.947	166.246	-6.5	127.308	170.496	-6	127.308	170.496	-6.5	134.669	174.746	-6	134.669	174.746	-6.5	-39	67.55	-6	-31.6388	71.8	-6	-39	67.55	-6.5	-31.6388	71.8	-6.5	-24.2776	76.05	-6	-24.2776	76.05	-6.5	-16.9164	80.3	-6	-16.9164	80.3	-6.5	-9.55514	84.55	-6	-9.55514	84.55	-6.5	-2.19392	88.8	-6	-2.19392	88.8	-6.5	5.1673	93.05	-6	5.1673	93.05	-6.5	12.5285	97.3	-6	12.5285	97.3	-6.5	19.8897	101.55	-6	19.8897	101.55	-6.5	27.2509	105.8	-6	27.2509	105.8	-6.5	34.6122	110.05	-6	34.6122	110.05	-6.5	41.9734	114.3	-6	41.9734	114.3	-6.5	49.3346	118.55	-6	49.3346	118.55	-6.5	56.6958	122.8	-6	56.6958	122.8	-6.5	64.057	127.05	-6	64.057	127.05	-6.5	71.4182	131.3	-6	71.4182	131.3	-6.5	78.7795	135.55	-6	78.7795	135.55	-6.5	86.1407	139.8	-6	86.1407	139.8	-6.5	93.5019	144.05	-6	93.5019	144.05	-6.5	100.863	148.3	-6	100.863	148.3	-6.5	108.224	152.55	-6	108.224	152.55	-6.5	115.586	156.8	-6	115.586	156.8	-6.5	122.947	161.05	-6	122.947	161.05	-6.5	130.308	165.3	-6	130.308	165.3	-6.5	137.669	169.55	-6	137.669	169.55	-6.5	-36	62.3538	-6	-28.6388	66.6038	-6	-36	62.3538	-6.5	-28.6388	66.6038	-6.5	-21.2776	70.8538	-6	-21.2776	70.8538	-6.5	-13.9164	75.1038	-6	-13.9164	75.1038	-6.5	-6.55514	79.3538	-6	-6.55514	79.3538	-6.5	0.80608	83.6038	-6	0.80608	83.6038	-6.5	8.1673	87.8538	-6	8.1673	87.8538	-6.5	15.5285	92.1038	-6	15.5285	92.1038	-6.5	22.8897	96.3538	-6	22.8897	96.3538	-6.5	30.2509	100.604	-6	30.2509	100.604	-6.5	37.6122	104.854	-6	37.6122	104.854	-6.5	44.9734	109.104	-6	44.9734	109.104	-6.5	52.3346	113.354	-6	52.3346	113.354	-6.5	59.6958	117.604	-6	59.6958	117.604	-6.5	67.057	121.854	-6	67.057	121.854	-6.5	74.4182	126.104	-6	74.4182	126.104	-6.5	81.7795	130.354	-6	81.7795	130.354	-6.5	89.1407	134.604	-6	89.1407	134.604	-6.5	96.5019	138.854	-6	96.5019	138.854	-6.5	103.863	143.104	-6	103.863	143.104	-6.5	111.224	147.354	-6	111.224	147.354	-6.5	118.586	151.604	-6	118.586	151.604	-6.5	125.947	155.854	-6	125.947	155.854	-6.5	133.308	160.104	-6	133.308	160.104	-6.5	140.669	164.354	-6	140.669	164.354	-6.5	-33	57.1577	-6	-25.6388	61.4077	-6	-33	57.1577	-6.5	-25.6388	61.4077	-6.5	-18.2776	65.6577	-6	-18.2776	65.6577	-6.5	-10.9164	69.9077	-6	-10.9164	69.9077	-6.5	-3.55514	74.1577	-6	-3.55514	74.1577	-6.5	3.80608	78.4077	-6	3.80608	78.4077	-6.5	11.1673	82.6577	-6	11.1673	82.6577	-6.5	18.5285	86.9077	-6	18.5285	86.9077	-6.5	25.8897	91.1577	-6	25.8897	91.1577	-6.5	33.2509	95.4077	-6	33.2509	95.4077	-6.5	40.6122	99.6577	-6	40.6122	99.6577	-6.5	47.9734	103.908	-6	47.9734	103.908	-6.5	55.3346	108.158	-6	55.3346	108.158	-6.5	62.6958	112.408	-6	62.6958	112.408	-6.5	70.057	116.658	-6	70.057	116.658	-6.5	77.4182	120.908	-6	77.4182	120.908	-6.5	84.7795	125.158	-6	84.7795	125.158	-6.5	92.1407	129.408	-6	92.1407	129.408	-6.5	99.5019	133.658	-6	99.5019	133.658	-6.5	106.863	137.908	-6	106.863	137.908	-6.5	114.224	142.158	-6	114.224	142.158	-6.5	121.586	146.408	-6	121.586	146.408	-6.5	128.947	150.658	-6	128.947	150.658	-6.5	136.308	154.908	-6	136.308	154.908	-6.5	143.669	159.158	-6	143.669	159.158	-6.5	-30	51.9615	-6	-22.6388	56.2115	-6	-30	51.9615	-6.5	-22.6388	56.2115	-6.5	-15.2776	60.4615	-6	-15.2776	60.4615	-6.5	-7.91635	64.7115	-6	-7.91635	64.7115	-6.5	-0.555136	68.9615	-6	-0.555136	68.9615	-6.5	6.80608	73.2115	-6	6.80608	73.2115	-6.5	14.1673	77.4615	-6	14.1673	77.4615	-6.5	21.5285	81.7115	-6	21.5285	81.7115	-6.5	28.8897	85.9615	-6	28.8897	85.9615	-6.5	36.2509	90.2115	-6	36.2509	90.2115	-6.5	43.6122	94.4615	-6	43.6122	94.4615	-6.5	50.9734	98.7115	-6	50.9734	98.7115	-6.5	58.3346	102.962	-6	58.3346	102.962	-6.5	65.6958	107.212	-6	65.6958	107.212	-6.5	73.057	111.462	-6	73.057	111.462	-6.5	80.4182	115.712	-6	80.4182	115.712	-6.5	87.7795	119.962	-6	87.7795	119.962	-6.5	95.1407	124.212	-6	95.1407	124.212	-6.5	102.502	128.462	-6	102.502	128.462	-6.5	109.863	132.712	-6	109.863	132.712	-6.5	117.224	136.962	-6	117.224	136.962	-6.5	124.586	141.212	-6	124.586	141.212	-6.5	131.947	145.462	-6	131.947	145.462	-6.5	139.308	149.712	-6	139.308	149.712	-6.5	146.669	153.962	-6	146.669	153.962	-6.5	-27	46.7654	-6	-19.6388	51.0154	-6	-27	46.7654	-6.5	-19.6388	51.0154	-6.5	-12.2776	55.2654	-6	-12.2776	55.2654	-6.5	-4.91635	59.5154	-6	-4.91635	59.5154	-6.5	2.44486	63.7654	-6	2.44486	63.7654	-6.5	9.80608	68.0154	-6	9.80608	68.0154	-6.5	17.1673	72.2654	-6	17.1673	72.2654	-6.5	24.5285	76.5154	-6	24.5285	76.5154	-6.5	31.8897	80.7654	-6	31.8897	80.7654	-6.5	39.2509	85.0154	-6	39.2509	85.0154	-6.5	46.6122	89.2654	-6	46.6122	89.2654	-6.5	53.9734	93.5154	-6	53.9734	93.5154	-6.5	61.3346	97.7654	-6	61.3346	97.7654	-6.5	68.6958	102.015	-6	68.6958	102.015	-6.5	76.057	106.265	-6	76.057	106.265	-6.5	83.4182	110.515	-6	83.4182	110.515	-6.5	90.7795	114.765	-6	90.7795	114.765	-6.5	98.1407	119.015	-6	98.1407	119.015	-6.5	105.502	123.265	-6	105.502	123.265	-6.5	112.863	127.515	-6	112.863	127.515	-6.5	120.224	131.765	-6	120.224	131.765	-6.5	127.586	136.015	-6	127.586	136.015	-6.5	134.947	140.265	-6	134.947	140.265	-6.5	142.308	144.515	-6	142.308	144.515	-6.5	149.669	148.765	-6	149.669	148.765	-6.5	-24	41.5692	-6	-16.6388	45.8192	-6	-24	41.5692	-6.5	-16.6388	45.8192	-6.5	-9.27757	50.0692	-6	-9.27757	50.0692	-6.5	-1.91635	54.3192	-6	-1.91635	54.3192	-6.5	5.44486	58.5692	-6	5.44486	58.5692	-6.5	12.8061	62.8192	-6	12.8061	62.8192	-6.5	20.1673	67.0692	-6	20.1673	67.0692	-6.5	27.5285	71.3192	-6	27.5285	71.3192	-6.5	34.8897	75.5692	-6	34.8897	75.5692	-6.5	56.9734	88.3192	-6	64.3346	92.5692	-6	56.9734	88.3192	-6.5	64.3346	92.5692	-6.5	71.6958	96.8192	-6	71.6958	96.8192	-6.5	79.057	101.069	-6	79.057	101.069	-6.5	86.4182	105.319	-6	86.4182	105.319	-6.5	93.7795	109.569	-6	93.7795	109.569	-6.5	101.141	113.819	-6	101.141	113.819	-6.5	108.502	118.069	-6	108.502	118.069	-6.5	115.863	122.319	-6	115.863	122.319	-6.5	123.224	126.569	-6	123.224	126.569	-6.5	130.586	130.819	-6	130.586	130.819	-6.5	137.947	135.069	-6	137.947	135.069	-6.5	145.308	139.319	-6	145.308	139.319	-6.5	152.669	143.569	-6	152.669	143.569	-6.5	-21	36.3731	-6	-13.6388	40.6231	-6	-21	36.3731	-6.5	-13.6388	40.6231	-6.5	-6.27757	44.8731	-6	-6.27757	44.8731	-6.5	1.08365	49.1231	-6	1.08365	49.1231	-6.5	8.44486	53.3731	-6	8.44486	53.3731	-6.5	15.8061	57.6231	-6	15.8061	57.6231	-6.5	23.1673	61.8731	-6	23.1673	61.8731	-6.5	30.5285	66.1231	-6	30.5285	66.1231	-6.5	104.141	108.623	-6	111.502	112.873	-6	104.141	108.623	-6.5	111.502	112.873	-6.5	118.863	117.123	-6	118.863	117.123	-6.5	126.224	121.373	-6	126.224	121.373	-6.5	133.586	125.623	-6	133.586	125.623	-6.5	140.947	129.873	-6	140.947	129.873	-6.5	148.308	134.123	-6	148.308	134.123	-6.5	155.669	138.373	-6	155.669	138.373	-6.5	-18	31.1769	-6	-10.6388	35.4269	-6	-18	31.1769	-6.5	-10.6388	35.4269	-6.5	-3.27757	39.6769	-6	-3.27757	39.6769	-6.5	4.08365	43.9269	-6	4.08365	43.9269	-6.5	11.4449	48.1769	-6	11.4449	48.1769	-6.5	18.8061	52.4269	-6	18.8061	52.4269	-6.5	26.1673	56.6769	-6	26.1673	56.6769	-6.5	33.5285	60.9269	-6	3
[...]
<CellData Scalars="scalars">
<DataArray type="Int32" Name="nodeid" format="ascii">1	2	3	4	5	6	7	8	9	10	11	12	13	14	15	16	17	18	19	20	21	22	23	24	25	26	27	28	29	30	31	32	33	34	35	36	37	38	39	40	41	42	43	44	45	46	47	48	49	50	51	52	53	54	55	56	57	58	59	60	61	62	63	64	65	66	67	68	69	70	71	72	73	74	75	76	77	78	79	80	81	82	83	84	85	86	87	88	89	90	91	92	93	94	95	96	97	98	99	100	101	102	103	104	105	106	107	108	109	110	111	112	113	114	115	116	117	118	119	120	121	122	123	124	125	126	127	128	129	130	131	132	133	134	135	136	137	138	139	140	141	142	143	144	145	146	147	148	149	150	151	152	153	154	155	156	157	158	159	160	161	162	163	164	165	166	167	168	169	170	171	172	173	174	175	176	2305	2306	2308	2307	2309	2310	2312	2311	2313	2314	2316	2315	180	181	182	183	184	185	186	187	188	189	190	191	192	193	194	195	196	197	198	199	2317	2318	2320	2319	2325	2326	2328	2327	2329	2330	2332	2331	2333	2334	2336	2335	2323	2341	2342	2344	2343	2345	2346	2348	2347	2353	2354	2356	2355	2349	2350	2352	2351	2361	2362	2364	2363	2358	2369	2370	2372	2371	2365	2366	2368	2367	2373	2374	2381	2382	2384	2383	2377	2378	2380	2379	2385	2386	2393	2394	2396	2395	2389	2390	2392	2391	2397	2398	2405	2406	2408	2407	2401	2402	2404	2403	2409	2410	2417	2418	2420	2419	2413	2414	2416	2415	2421	2422	2429	2430	2432	2431	2425	2426	2428	2427	2433	2434	2436	2437	2438	2440	2439	210	211	212	213	214	215	216	217	218	219	220	221	222	223	224	2441	2442	2444	2443	2445	2446	2448	2447	2449	2453	2454	2456	2455	2452	2451	2461	2462	2464	2463	2465	2466	2468	2467	2460	2459	2473	2474	2476	2475	2477	2478	2480	2479	2485	2486	2488	2487	2481	2482	2484	2483	2493	2494	2496	2495	2497	2498	2500	2499	2505	2506	2508	2507	2501	2502	2504	2503	2513	2514	2516	2515	2517	2518	2520	2519	2525	2526	2528	2527	2521	2522	2524	2523	2533	2534	2536	2535	2537	2538	2540	2539	2545	2546	2548	2547	2541	2542	2544	2543	2553	2554	2556	2555	2550	2552	2551	234	235	236	237	238	239	240	241	242	243	244	245	246	247	248	249	250	251	252	2557	2558	2560	2559	2561	2562	2564	2563	2569	2570	2572	2571	2573	2574	2576	2575	2568	2567	2581	2582	2584	2583	2585	2586	2588	2587	2580	2579	2589	2590	2592	2591	258	259	260	261	262	263	264	265	266	267	268	269	270	271	272	273	274	275	276	277	278	279	280	281	282	283	284	285	286	287	288	289	290	291	292	293	294	295	296	297	298	299	300	301	302	303	304	305	306	307	308	309	310	311	312	313	314	315	316	317	318	319	320	321	322	323	324	325	326	327	328	329	330	331	332	333	334	335	336	337	338	339	340	341	342	343	344	345	346	347	348	349	350	351	352	353	354	355	356	357	358	359	360	361	362	363	364	365	366	367	368	369	370	371	372	373	374	375	376	377	378	379	380	381	382	383	384	385	386	387	388	389	390	391	392	393	394	395	396	397	398	399	400	401	402	403	404	405	406	407	408	409	410	411	412	413	414	415	416	417	418	419	420	421	422	423	424	425	426	427	428	429	430	431	432	433	434	435	436	437	438	439	440	441	442	443	444	445	446	447	448	449	450	451	452	453	454	455	456	457	458	459	460	461	462	463	464	465	466	467	468	469	470	471	472	473	474	475	476	477	478	479	480	481	482	483	484	485	486	487	488	489	490	491	492	493	494	495	496	497	498	499	500	501	502	503	504	505	506	507	508	509	510	511	512	513	514	515	516	517	518	519	520	521	522	523	524	525	526	527	528	529	530	531	532	533	534	535	536	537	538	539	540	541	542	543	544	545	546	547	548	549	550	551	552	553	554	555	556	557	558	559	560	2593	2594	2596	2595	2597	2598	2600	2599	2601	2602	2604	2603	564	565	566	567	568	569	570	571	572	573	574	575	576	577	578	579	580	581	582	583	2605	2606	2608	2607	2613	2614	2616	2615	2617	2618	2620	2619	2621	2622	2624	2623	2611	2629	2630	2632	2631	2633	2634	2636	2635	2641	2642	2644	2643	2637	2638	2640	2639	2649	2650	2652	2651	2646	2657	2658	2660	2659	2653	2654	2656	2655	2661	2662	2669	2670	2672	2671	2665	2666	2668	2667	2673	2674	2681	2682	2684	2683	2677	2678	2680	2679	2685	2686	2693	2694	2696	2695	2689	2690	2692	2691	2697	2698	2705	2706	2708	2707	2701	2702	2704	2703	2709	2710	2717	2718	2720	2719	2713	2714	2716	2715	2721	2722	2724	2725	2726	2728	2727	594	595	596	597	598	599	600	601	602	603	604	605	606	607	608	2729	2730	2732	2731	2733	2734	2736	2735	2737	2741	2742	2744	2743	2740	2739	2749	2750	2752	2751	2753	2754	2756	2755	2748	2747	2761	2762	2764	2763	2765	2766	2768	2767	2773	2774	2776	2775	2769	2770	2772	2771	2781	2782	2784	2783	2785	2786	2788	2787	2793	2794	2796	2795	2789	2790	2792	2791	2801	2802	2804	2803	2805	2806	2808	2807	2813	2814	2816	2815	2809	2810	2812	2811	2821	2822	2824	2823	2825	2826	2828	2827	2833	2834	2836	2835	2829	2830	2832	2831	2841	2842	2844	2843	2838	2840	2839	618	619	620	621	622	623	624	625	626	627	628	629	630	631	632	633	634	635	636	2845	2846	2848	2847	2849	2850	2852	2851	2857	2858	2860	2859	2861	2862	2864	2863	2856	2855	2869	2870	2872	2871	2873	2874	2876	2875	2868	2867	2877	2878	2880	2879	642	643	644	645	646	647	648	649	650	651	652	653	654	655	656	657	658	659	660	661	662	663	664	665	666	667	668	669	670	671	672	673	674	675	676	677	678	679	680	681	682	683	684	685	686	687	688	689	690	691	692	693	694	695	696	697	698	699	700	701	702	703	704	705	706	707	708	709	710	711	712	713	714	715	716	717	718	719	720	721	722	723	724	725	726	727	728	729	730	731	732	733	734	735	736	737	738	739	740	741	742	743	744	745	746	747	748	749	750	751	752	753	754	755	756	757	758	759	760	761	762	763	764	765	766	767	768	769	770	771	772	773	774	775	776	777	778	779	780	781	782	783	784	785	786	787	788	789	790	791	792	793	794	795	796	797	798	799	800	801	802	803	804	805	806	807	808	809	810	811	812	813	814	815	816	817	818	819	820	821	822	823	824	825	826	827	828	829	830	831	832	833	834	835	836	837	838	839	840	841	842	843	844	845	846	847	848	849	850	851	852	853	854	855	856	857	858	859	860	861	862	863	864	865	866	867	868	869	870	871	872	873	874	875	876	877	878	879	880	881	882	883	884	885	886	887	888	889	890	891	892	893	894	895	896	897	898	899	900	901	902	903	904	905	906	907	908	909	910	911	912	913	914	915	916	917	918	919	920	921	922	923	924	925	926	927	928	929	930	931	932	933	934	935	936	937	938	939	940	941	942	943	944	2881	2882	2884	2883	2885	2886	2888	2887	2889	2890	2892	2891	948	949	950	951	952	953	954	955	956	957	958	959	960	961	962	963	964	965	966	967	2893	2894	2896	2895	2901	2902	2904	2903	2905	2906	2908	2907	2909	2910	2912	2911	2899	2917	2918	2920	2919	2921	2922	2924	2923	2929	2930	2932	2931	2925	2926	2928	2927	2937	2938	2940	2939	2934	2945	2946	2948	2947	2941	2942	2944	2943	2949	2950	2957	2958	2960	2959	2953	2954	2956	2955	2961	2962	2969	2970	2972	2971	2965	2966	2968	2967	2973	2974	2981	2982	2984	2983	2977	2978	2980	2979	2985	2986	2993	2994	2996	2995	2989	2990	2992	2991	2997	2998	3005	3006	3008	3007	3001	3002	3004	3003	3009	3010	3012	3013	3014	3016	3015	978	979	980	981	982	983	984	985	986	987	988	989	990	991	992	3017	3018	3020	3019	3021	3022	3024	3023	3025	3029	3030	3032	3031	3028	3027	3037	3038	3040	3039	3041	3042	3044	3043	3036	3035	3049	3050	3052	3051	3053	3054	3056	3055	3061	3062	3064	3063	3057	3058	3060	3059	3069	3070	3072	3071	3073	3074	3076	3075	3081	3082	3084	3083	3077	3078	3080	3079	3089	3090	3092	3091	3093	3094	3096	3095	3101	3102	3104	3103	3097	3098	3100	3099	3109	3110	3112	3111	3113	3114	3116	3115	3121	3122	3124	3123	3117	3118	3120	3119	3129	3130	3132	3131	3126	3128	3127	1002	1003	1004	1005	1006	1007	1008	1009	1010	1011	1012	1013	1014	1015	1016	1017	1018	1019	1020	3133	3134	3136	3135	3137	3138	3140	3139	3145	3146	3148	3147	3149	3150	3152	3151	3144	3143	3157	3158	3160	3159	3161	3162	3164	3163	3156	3155	3165	3166	3168	3167	1026	1027	1028	1029	1030	1031	1032	1033	1034	1035	1036	1037	1038	1039	1040	1041	1042	1043	1044	1045	1046	1047	1048	1049	1050	1051	1052	1053	1054	1055	1056	1057	1058	1059	1060	1061	1062	1063	1064	1065	1066	1067	1068	1069	1070	1071	1072	1073	1074	1075	1076	1077	1078	1079	1080	1081	1082	1083	1084	1085	1086	1087	1088	1089	1090	1091	1092	1093	1094	1095	1096	1097	1098	1099	1100	1101	1102	1103	1104	1105	1106	1107	1108	1109	1110	1111	1112	1113	1114	1115	1116	1117	1118	1119	1120	1121	1122	1123	1124	1125	1126	1127	1128	1129	1130	1131	1132	1133	1134	1135	1136	1137	1138	1139	1140	1141	1142	1143	1144	1145	1146	1147	1148	1149	1150	1151	1152	1153	1154	1155	1156	1157	1158	1159	1160	1161	1162	1163	1164	1165	1166	1167	1168	1169	1170	1171	1172	1173	1174	1175	1176	1177	1178	1179	1180	1181	1182	1183	1184	1185	1186	1187	1188	1189	1190	1191	1192	1193	1194	1195	1196	1197	1198	1199	1200	1201	1202	1203	1204	1205	1206	1207	1208	1209	1210	1211	1212	1213	1214	1215	1216	1217	1218	1219	1220	1221	1222	1223	1224	1225	1226	1227	1228	1229	1230	1231	1232	1233	1234	1235	1236	1237	1238	1239	1240	1241	1242	1243	1244	1245	1246	1247	1248	1249	1250	1251	1252	1253	1254	1255	1256	1257	1258	1259	1260	1261	1262	1263	1264	1265	1266	1267	1268	1269	1270	1271	1272	1273	1274	1275	1276	1277	1278	1279	1280	1281	1282	1283	1284	1285	1286	1287	1288	1289	1290	1291	1292	1293	1294	1295	1296	1297	1298	1299	1300	1301	1302	1303	1304	1305	1306	1307	1308	1309	1310	1311	1312	1313	1314	1315	1316	1317	1318	1319	1320	1321	1322	1323	1324	1325	1326	1327	1328	3169	3170	3172	3171	3173	3174	3176	3175	3177	3178	3180	3179	1332	1333	1334	1335	1336	1337	1338	1339	1340	1341	1342	1343	1344	1345	1346	1347	1348	1349	1350	1351	3181	3182	3184	3183	3189	3190	3192	3191	3193	3194	3196	3195	3197	3198	3200	3199	3187	3205	3206	3208	3207	3209	3210	3212	3211	3217	3218	3220	3219	3213	3214	3216	3215	3225	3226	3228	3227	3222	3233	3234	3236	3235	3229	3230	3232	3231	3237	3238	3245	3246	3248	3247	3241	3242	3244	3243	3249	3250	3257	3258	3260	3259	3253	3254	3256	3255	3261	3262	3269	3270	3272	3271	3265	3266	3268	3267	3273	3274	3281	3282	3284	3283	3277	3278	3280	3279	3285	3286	3293	3294	3296	3295	3289	3290	3292	3291	3297	3298	3300	3301	3302	3304	3303	1362	1363	1364	1365	1366	1367	1368	1369	1370	1371	1372	1373	1374	1375	1376	3305	3306	3308	3307	3309	3310	3312	3311	3313	3317	3318	3320	3319	3316	3315	3325	3326	3328	3327	3329	3330	3332	3331	3324	3323	3337	3338	3340	3339	3341	3342	3344	3343	3349	3350	3352	3351	3345	3346	3348	3347	3357	3358	3360	3359	3361	3362	3364	3363	3369	3370	3372	3371	3365	3366	3368	3367	3377	3378	3380	3379	3381	3382	3384	3383	3389	3390	3392	3391	3385	3386	3388	3387	3397	3398	3400	3399	3401	3402	3404	3403	3409	3410	3412	3411	3405	3406	3408	3407	3417	3418	3420	3419	3414	3416	3415	1386	1387	1388	1389	1390	1391	1392	1393	1394	1395	1396	1397	1398	1399	1400	1401	1402	1403	1404	3421	3422	3424	3423	3425	3426	3428	3427	3433	3434	3436	3435	3437	3438	3440	3439	3432	3431	3445	3446	3448	3447	3449	3450	3452	3451	3444	3443	3453	3454	3456	3455	1410	1411	1412	1413	1414	1415	1416	1417	1418	1419	1420	1421	1422	1423	1424	1425	1426	1427	1428	1429	1430	1431	1432	1433	1434	1435	1436	1437	1438	1439	1440	1441	1442	1443	1444	1445	1446	1447	1448	1449	1450	1451	1452	1453	1454	1455	1456	1457	1458	1459	1460	1461	1462	1463	1464	1465	1466	1467	1468	1469	1470	1471	1472	1473	1474	1475	1476	1477	1478	1479	1480	1481	1482	1483	1484	1485	1486	1487	1488	1489	1490	1491	1492	1493	1494	1495	1496	1497	1498	1499	1500	1501	1502	1503	1504	1505	1506	1507	1508	1509	1510	1511	1512	1513	1514	1515	1516	1517	1518	1519	1520	1521	1522	1523	1524	1525	1526	1527	1528	1529	1530	1531	1532	1533	1534	1535	1536	1537	1538	1539	1540	1541	1542	1543	1544	1545	1546	1547	1548	1549	1550	1551	1552	1553	1554	1555	1556	1557	1558	1559	1560	1561	1562	1563	1564	1565	1566	1567	1568	1569	1570	1571	1572	1573	1574	1575	1576	1577	1578	1579	1580	1581	1582	1583	1584	1585	1586	1587	1588	1589	1590	1591	1592	1593	1594	1595	1596	1597	1598	1599	1600	1601	1602	1603	1604	1605	1606	1607	1608	1609	1610	1611	1612	1613	1614	1615	1616	1617	1618	1619	1620	1621	1622	1623	1624	1625	1626	1627	1628	1629	1630	1631	1632	1633	1634	1635	1636	1637	1638	1639	1640	1641	1642	1643	1644	1645	1646	1647	1648	1649	1650	1651	1652	1653	1654	1655	1656	1657	1658	1659	1660	1661	1662	1663	1664	1665	1666	1667	1668	1669	1670	1671	1672	1673	1674	1675	1676	1677	1678	1679	1680	1681	1682	1683	1684	1685	1686	1687	1688	1689	1690	1691	1692	1693	1694	1695	1696	1697	1698	1699	1700	1701	1702	1703	1704	1705	1706	1707	1708	1709	1710	1711	1712	3457	3458	3460	3459	3461	3462	3464	3463	3465	3466	3468	3467	1716	1717	1718	1719	1720	1721	1722	1723	1724	1725	1726	1727	1728	1729	1730	1731	1732	1733	1734	1735	3469	3470	3472	3471	3477	3478	3480	3479	3481	3482	3484	3483	3485	3486	3488	3487	3475	3493	3494	3496	3495	3497	3498	3500	3499	3505	3506	3508	3507	3501	3502	3504	3503	3513	3514	3516	3515	3510	3521	3522	3524	3523	3517	3518	3520	3519	3525	3526	3533	3534	3536	3535	3529	3530	3532	3531	3537	3538	3545	3546	3548	3547	3541	3542	3544	3543	3549	3550	3557	3558	3560	3559	3553	3554	3556	3555	3561	3562	3569	3570	3572	3571	3565	3566	3568	3567	3573	3574	3581	3582	3584	3583	3577	3578	3580	3579	3585	3586	3588	3589	3590	3592	3591	1746	1747	1748	1749	1750	1751	1752	1753	1754	1755	1756	1757	1758	1759	1760	3593	3594	3596	3595	3597	3598	3600	3599	3601	3605	3606	3608	3607	3604	3603	3613	3614	3616	3615	3617	3618	3620	3619	3612	3611	3625	3626	3628	3627	3629	3630	3632	3631	3637	3638	3640	3639	3633	3634	3636	3635	3645	3646	3648	3647	3649	3650	3652	3651	3657	3658	3660	3659	3653	3654	3656	3655	3665	3666	3668	3667	3669	3670	3672	3671	3677	3678	3680	3679	3673	3674	3676	3675	3685	3686	3688	3687	3689	3690	3692	3691	3697	3698	3700	3699	3693	3694	3696	3695	3705	3706	3708	3707	3702	3704	3703	1770	1771	1772	1773	1774	1775	1776	1777	1778	1779	1780	1781	1782	1783	1784	1785	1786	1787	1788	3709	3710	3712	3711	3713	3714	3716	3715	3721	3722	3724	3723	3725	3726	3728	3727	3720	3719	3733	3734	3736	3735	3737	3738	3740	3739	3732	3731	3741	3742	3744	3743	1794	1795	1796	1797	1798	1799	1800	1801	1802	1803	1804	1805	1806	1807	1808	1809	1810	1811	1812	1813	1814	1815	1816	1817	1818	1819	1820	1821	1822	1823	1824	1825	1826	1827	1828	1829	1830	1831	1832	1833	1834	1835	1836	1837	1838	1839	1840	1841	1842	1843	1844	1845	1846	1847	1848	1849	1850	1851	1852	1853	1854	1855	1856	1857	1858	1859	1860	1861	1862	1863	1864	1865	1866	1867	1868	1869	1870	1871	1872	1873	1874	1875	1876	1877	1878	1879	1880	1881	1882	1883	1884	1885	1886	1887	1888	1889	1890	1891	1892	1893	1894	1895	1896	1897	1898	1899	1900	1901	1902	1903	1904	1905	1906	1907	1908	1909	1910	1911	1912	1913	1914	1915	1916	1917	1918	1919	1920	1921	1922	1923	1924	1925	1926	1927	1928	1929	1930	1931	1932	1933	1934	1935	1936	1937	1938	1939	1940	1941	1942	1943	1944	1945	1946	1947	1948	1949	1950	1951	1952	1953	1954	1955	1956	1957	1958	1959	1960	1961	1962	1963	1964	1965	1966	1967	1968	1969	1970	1971	1972	1973	1974	1975	1976	1977	1978	1979	1980	1981	1982	1983	1984	1985	1986	1987	1988	1989	1990	1991	1992	1993	1994	1995	1996	1997	1998	1999	2000	2001	2002	2003	2004	2005	2006	2007	2008	2009	2010	2011	2012	2013	2014	2015	2016	2017	2018	2019	2020	2021	2022	2023	2024	2025	2026	2027	2028	2029	2030	2031	2032	2033	2034	2035	2036	2037	2038	2039	2040	2041	2042	2043	2044	2045	2046	2047	2048	2049	2050	2051	2052	2053	2054	2055	2056	2057	2058	2059	2060	2061	2062	2063	2064	2065	2066	2067	2068	2069	2070	2071	2072	2073	2074	2075	2076	2077	2078	2079	2080	2081	2082	2083	2084	2085	2086	2087	2088	2089	2090	2091	2092	2093	2094	2095	2096	3745	3746	3748	3747	3749	3750	3752	3751	3753	3754	3756	3755	2100	2101	2102	2103	2104	2105	2106	2107	2108	2109	2110	2111	2112	2113	2114	2115	2116	2117	2118	2119	3757	3758	3760	3759	3765	3766	3768	3767	3769	3770	3772	3771	3773	3774	3776	3775	3763	3781	3782	3784	3783	3785	3786	3788	3787	3793	3794	3796	3795	3789	3790	3792	3791	3801	3802	3804	3803	3798	3809	3810	3812	3811	3805	3806	3808	3807	3813	3814	3821	3822	3824	3823	3817	3818	3820	3819	3825	3826	3833	3834	3836	3835	3829	3830	3832	3831	3837	3838	3845	3846	3848	3847	3841	3842	3844	3843	3849	3850	3857	3858	3860	3859	3853	3854	3856	3855	3861	3862	3869	3870	3872	3871	3865	3866	3868	3867	3873	3874	3876	3877	3878	3880	3879	2130	2131	2132	2133	2134	2135	2136	2137	2138	2139	2140	2141	2142	2143	2144	3881	3882	3884	3883	3885	3886	3888	3887	3889	3893	3894	3896	3895	3892	3891	3901	3902	3904	3903	3905	3906	3908	3907	3900	3899	3913	3914	3916	3915	3917	3918	3920	3919	3925	3926	3928	3927	3921	3922	3924	3923	3933	3934	3936	3935	3937	3938	3940	3939	3945	3946	3948	3947	3941	3942	3944	3943	3953	3954	3956	3955	3957	3958	3960	3959	3965	3966	3968	3967	3961	3962	3964	3963	3973	3974	3976	3975	3977	3978	3980	3979	3985	3986	3988	3987	3981	3982	3984	3983	3993	3994	3996	3995	3990	3992	3991	2154	2155	2156	2157	2158	2159	2160	2161	2162	2163	2164	2165	2166	2167	2168	2169	2170	2171	2172	3997	3998	4000	3999	4001	4002	4004	4003	4009	4010	4012	4011	4013	4014	4016	4015	4008	4007	4021	4022	4024	4023	4025	4026	4028	4027	4020	4019	4029	4030	4032	4031	2178	2179	2180	2181	2182	2183	2184	2185	2186	2187	2188	2189	2190	2191	2192	2193	2194	2195	2196	2197	2198	2199	2200	2201	2202	2203	2204	2205	2206	2207	2208	2209	2210	2211	2212	2213	2214	2215	2216	2217	2218	2219	2220	2221	2222	2223	2224	2225	2226	2227	2228	2229	2230	2231	2232	2233	2234	2235	2236	2237	2238	2239	2240	2241	2242	2243	2244	2245	2246	2247	2248	2249	2250	2251	2252	2253	2254	2255	2256	2257	2258	2259	2260	2261	2262	2263	2264	2265	2266	2267	2268	2269	2270	2271	2272	2273	2274	2275	2276	2277	2278	2279	2280	2281	2282	2283	2284	2285	2286	2287	2288	2289	2290	2291	2292	2293	2294	2295	2296	2297	2298	2299	2300	2301	2302	2303	2304	</DataArray>